<UPF version="2.0.1">
<PP_INFO>
Generated by new atomic code, or converted to UPF format
Author:
Generation date:
Pseudopotential type: US
Element: H
Functional:  SLA  PW   GGX  GGC
Suggested minimum cutoff for wavefunctions:   0. Ry
Suggested minimum cutoff for charge density:   0. Ry
The Pseudo was generated with a Non-Relativistic Calculation
L component and cutoff radius for Local Potential:  0   0.0000
Valence configuration:
nl pn  l   occ       Rcut    Rcut US       E pseu
1S  0  0  1.00     10.000      0.800     0.000000
Generation configuration: not available.
</PP_INFO>
<!--
END OF HUMAN READABLE SECTION
-->
<PP_HEADER 
relativistic="no"
number_of_proj="1"
comment=""
mesh_size="615"
paw_as_gipaw="false"
date=""
total_psenergy="-9.202379009400e-1"
is_coulomb="false"
has_wfc="false"
pseudo_type="US"
is_ultrasoft="true"
has_so="false"
rho_cutoff="0.000000000000e0"
z_valence="1.000000000000e0"
element="H "
wfc_cutoff="0.000000000000e0"
core_correction="false"
l_max="0"
l_max_rho="0"
is_paw="false"
has_gipaw="false"
l_local="0"
functional=" SLA  PW   GGX  GGC"
number_of_wfc="1"
generated="Generated by new atomic code, or converted to UPF format"
author=""
/>
<PP_MESH mesh="615" rmax="8.200247532520e1" zmesh="1.000000000000e0">
<PP_R>
0.000000000000000e0 4.237080908000000e-5 8.546588800790001e-5 1.292976171660000e-4
1.738785885620000e-4 2.192216094460000e-4 2.653397059910000e-4 3.122461270330001e-4
3.599543478800000e-4 4.084780741790000e-4 4.578312458600000e-4 5.080280411320000e-4
5.590828805650000e-4 6.110104312240000e-4 6.638256108910000e-4 7.175435923459999e-4
7.721798077230001e-4 8.277499529510001e-4 8.842699922580000e-4 9.417561627560001e-4
1.000224979110000e-3 1.059693238280000e-3 1.120178024350000e-3 1.181696713420000e-3
1.244266978620000e-3 1.307906795190000e-3 1.372634445600000e-3 1.438468524860000e-3
1.505427945820000e-3 1.573531944640000e-3 1.642800086270000e-3 1.713252270110000e-3
1.784908735710000e-3 1.857790068590000e-3 1.931917206130000e-3 2.007311443640000e-3
2.083994440420000e-3 2.161988226010000e-3 2.241315206510000e-3 2.321998171040000e-3
2.404060298240000e-3 2.487525162980000e-3 2.572416743090000e-3 2.658759426300001e-3
2.746578017170000e-3 2.835897744290000e-3 2.926744267490000e-3 3.019143685220000e-3
3.113122542040000e-3 3.208707836259999e-3 3.305927027690001e-3 3.404808045510000e-3
3.505379296330000e-3 3.607669672329999e-3 3.711708559540000e-3 3.817525846340000e-3
3.925151931970000e-3 4.034617735329999e-3 4.145954703830000e-3 4.259194822420000e-3
4.374370622800000e-3 4.491515192740000e-3 4.610662185620001e-3 4.731845830059999e-3
4.855100939780000e-3 4.980462923580001e-3 5.107967795540000e-3 5.237652185330001e-3
5.369553348779999e-3 5.503709178540000e-3 5.640158214980000e-3 5.778939657260000e-3
5.920093374610000e-3 6.063659917769999e-3 6.209680530620000e-3 6.358197162060000e-3
6.509252478030001e-3 6.662889873830000e-3 6.819153486480001e-3 6.978088207510000e-3
7.139739695779999e-3 7.304154390640000e-3 7.471379525249999e-3 7.641463140160000e-3
7.814454097090000e-3 7.990402093000002e-3 8.169357674350000e-3 8.351372251600001e-3
8.536498114040000e-3 8.724788444720000e-3 8.916297335829999e-3 9.111079804159999e-3
9.309191806950000e-3 9.510690257940000e-3 9.715633043730000e-3 9.924079040420001e-3
1.013608813050000e-2 1.035172122010000e-2 1.057104025650000e-2 1.079410824560000e-2
1.102098927080000e-2 1.125174851040000e-2 1.148645225720000e-2 1.172516793690000e-2
1.196796412810000e-2 1.221491058130000e-2 1.246607823950000e-2 1.272153925820000e-2
1.298136702660000e-2 1.324563618800000e-2 1.351442266190000e-2 1.378780366550000e-2
1.406585773580000e-2 1.434866475240000e-2 1.463630596020000e-2 1.492886399300000e-2
1.522642289710000e-2 1.552906815540000e-2 1.583688671210000e-2 1.614996699730000e-2
1.646839895310000e-2 1.679227405880000e-2 1.712168535740000e-2 1.745672748240000e-2
1.779749668490000e-2 1.814409086140000e-2 1.849660958160000e-2 1.885515411740000e-2
1.921982747160000e-2 1.959073440780000e-2 1.996798148050000e-2 2.035167706540000e-2
2.074193139090000e-2 2.113885656930000e-2 2.154256662980000e-2 2.195317755030000e-2
2.237080729150000e-2 2.279557583020000e-2 2.322760519430000e-2 2.366701949740000e-2
2.411394497480000e-2 2.456851001940000e-2 2.503084521920000e-2 2.550108339390000e-2
2.597935963390000e-2 2.646581133880000e-2 2.696057825670000e-2 2.746380252450000e-2
2.797562870890000e-2 2.849620384760000e-2 2.902567749170000e-2 2.956420174890000e-2
3.011193132670000e-2 3.066902357720000e-2 3.123563854220000e-2 3.181193899930000e-2
3.239809050840000e-2 3.299426145950000e-2 3.360062312099999e-2 3.421734968880000e-2
3.484461833660000e-2 3.548260926650000e-2 3.613150576100000e-2 3.679149423550000e-2
3.746276429180000e-2 3.814550877290000e-2 3.883992381810000e-2 3.954620891929999e-2
4.026456697860000e-2 4.099520436640000e-2 4.173833098070000e-2 4.249416030730000e-2
4.326290948140000e-2 4.404479934979999e-2 4.484005453420000e-2 4.564890349620000e-2
4.647157860230000e-2 4.730831619120001e-2 4.815935664140000e-2 4.902494444049999e-2
4.990532825490001e-2 5.080076100189999e-2 5.171149992210000e-2 5.263780665310001e-2
5.357994730480000e-2 5.453819253620001e-2 5.551281763240000e-2 5.650410258449999e-2
5.751233216940000e-2 5.853779603190000e-2 5.958078876800000e-2 6.064161000930000e-2
6.172056450929999e-2 6.281796223060000e-2 6.393411843440000e-2 6.506935377080001e-2
6.622399437089999e-2 6.739837194060000e-2 6.859282385600000e-2 6.980769325980001e-2
7.104332916059999e-2 7.230008653260001e-2 7.357832641800000e-2 7.487841603030000e-2
7.620072886010000e-2 7.754564478220000e-2 7.891355016509999e-2 8.030483798140001e-2
8.171990792130000e-2 8.315916650690001e-2 8.462302720929999e-2 8.611191056750000e-2
8.762624430880001e-2 8.916646347189999e-2 9.073301053220000e-2 9.232633552810000e-2
9.394689619110000e-2 9.559515807700000e-2 9.727159469949999e-2 9.897668766639999e-2
1.007109268180000e-1 1.024748103670000e-1 1.042688450450000e-1 1.060935462410000e-1
1.079494381570000e-1 1.098370539560000e-1 1.117569359120000e-1 1.137096355710000e-1
1.156957139060000e-1 1.177157414770000e-1 1.197702986010000e-1 1.218599755120000e-1
1.239853725330000e-1 1.261471002500000e-1 1.283457796850000e-1 1.305820424770000e-1
1.328565310600000e-1 1.351698988510000e-1 1.375228104360000e-1 1.399159417610000e-1
1.423499803260000e-1 1.448256253830000e-1 1.473435881370000e-1 1.499045919510000e-1
1.525093725510000e-1 1.551586782390000e-1 1.578532701110000e-1 1.605939222710000e-1
1.633814220540000e-1 1.662165702560000e-1 1.691001813590000e-1 1.720330837700000e-1
1.750161200550000e-1 1.780501471810000e-1 1.811360367670000e-1 1.842746753290000e-1
1.874669645360000e-1 1.907138214730000e-1 1.940161788970000e-1 1.973749855130000e-1
2.007912062400000e-1 2.042658224930000e-1 2.077998324610000e-1 2.113942513980000e-1
2.150501119100000e-1 2.187684642550000e-1 2.225503766450000e-1 2.263969355480000e-1
2.303092460080000e-1 2.342884319550000e-1 2.383356365320000e-1 2.424520224230000e-1
2.466387721860000e-1 2.508970885930000e-1 2.552281949770000e-1 2.596333355790000e-1
2.641137759120000e-1 2.686708031190000e-1 2.733057263470000e-1 2.780198771190000e-1
2.828146097190000e-1 2.876913015810000e-1 2.926513536850000e-1 2.976961909570000e-1
3.028272626820000e-1 3.080460429170000e-1 3.133540309160000e-1 3.187527515630000e-1
3.242437558040000e-1 3.298286211000000e-1 3.355089518730000e-1 3.412863799740000e-1
3.471625651440000e-1 3.531391955000000e-1 3.592179880100000e-1 3.654006889950000e-1
3.716890746240000e-1 3.780849514300000e-1 3.845901568230000e-1 3.912065596240000e-1
3.979360605960000e-1 4.047805929960000e-1 4.117421231250001e-1 4.188226508960000e-1
4.260242104080000e-1 4.333488705290000e-1 4.407987354919999e-1 4.483759455000000e-1
4.560826773370000e-1 4.639211449999999e-1 4.718936003290001e-1 4.800023336540001e-1
4.882496744590000e-1 4.966379920450000e-1 5.051696962139999e-1 5.138472379580000e-1
5.226731101680000e-1 5.316498483449999e-1 5.407800313340000e-1 5.500662820590000e-1
5.595112682800000e-1 5.691177033590000e-1 5.788883470380000e-1 5.888260062360001e-1
5.989335358480000e-1 6.092138395720000e-1 6.196698707420000e-1 6.303046331720000e-1
6.411211820229999e-1 6.521226246810000e-1 6.633121216480000e-1 6.746928874500000e-1
6.862681915590000e-1 6.980413593380001e-1 7.100157729890000e-1 7.221948725290001e-1
7.345821567790000e-1 7.471811843660000e-1 7.599955747450000e-1 7.730290092440000e-1
7.862852321169999e-1 7.997680516190000e-1 8.134813411029999e-1 8.274290401329999e-1
8.416151556119999e-1 8.560437629360001e-1 8.707190071670000e-1 8.856451042160000e-1
9.008263420630001e-1 9.162670819839999e-1 9.319717598050000e-1 9.479448871760001e-1
9.641910528660000e-1 9.807149240859999e-1 9.975212478230000e-1 1.014614852210000e0
1.032000647910000e0 1.049683629520000e0 1.067668877020000e0 1.085961557230000e0
1.104566925280000e0 1.123490326120000e0 1.142737196100000e0 1.162313064460000e0
1.182223554960000e0 1.202474387520000e0 1.223071379790000e0 1.244020448900000e0
1.265327613110000e0 1.286998993560000e0 1.309040816010000e0 1.331459412660000e0
1.354261223920000e0 1.377452800330000e0 1.401040804370000e0 1.425032012420000e0
1.449433316680000e0 1.474251727190000e0 1.499494373790000e0 1.525168508210000e0
1.551281506120000e0 1.577840869280000e0 1.604854227700000e0 1.632329341770000e0
1.660274104580000e0 1.688696544100000e0 1.717604825570000e0 1.747007253760000e0
1.776912275420000e0 1.807328481700000e0 1.838264610570000e0 1.869729549390000e0
1.901732337420000e0 1.934282168460000e0 1.967388393420000e0 2.001060523110000e0
2.035308230850000e0 2.070141355360000e0 2.105569903520000e0 2.141604053270000e0
2.178254156520000e0 2.215530742130000e0 2.253444518950000e0 2.292006378880000e0
2.331227399980000e0 2.371118849700000e0 2.411692188080000e0 2.452959071050000e0
2.494931353800000e0 2.537621094140000e0 2.581040556010000e0 2.625202212990000e0
2.670118751860000e0 2.715803076280000e0 2.762268310470000e0 2.809527802990000e0
2.857595130570000e0 2.906484102040000e0 2.956208762240000e0 3.006783396120000e0
3.058222532780000e0 3.110540949690000e0 3.163753676920000e0 3.217876001460000e0
3.272923471600000e0 3.328911901420000e0 3.385857375310000e0 3.443776252600000e0
3.502685172270000e0 3.562601057700000e0 3.623541121580000e0 3.685522870800000e0
3.748564111520000e0 3.812682954260000e0 3.877897819140000e0 3.944227441120000e0
4.011690875420000e0 4.080307502980000e0 4.150097036020000e0 4.221079523720000e0
4.293275358000000e0 4.366705279300000e0 4.441390382620000e0 4.517352123560000e0
4.594612324440000e0 4.673193180630000e0 4.753117266890000e0 4.834407543870000e0
4.917087364670000e0 5.001180481630000e0 5.086711053050000e0 5.173703650230000e0
5.262183264450000e0 5.352175314190000e0 5.443705652430000e0 5.536800574060000e0
5.631486823440000e0 5.727791602120000e0 5.825742576580000e0 5.925367886250000e0
6.026696151560000e0 6.129756482140000e0 6.234578485240000e0 6.341192274190000e0
6.449628477070000e0 6.559918245510000e0 6.672093263610000e0 6.786185757100000e0
6.902228502530000e0 7.020254836750000e0 7.140298666430000e0 7.262394477840000e0
7.386577346750000e0 7.512882948500000e0 7.641347568230000e0 7.772008111350000e0
7.904902114100000e0 8.040067754360001e0 8.177543862609999e0 8.317369933060000e0
8.459586135040000e0 8.604233324510000e0 8.751353055819999e0 8.900987593609999e0
9.053179924989999e0 9.207973771880001e0 9.365413603540000e0 9.525544649410000e0
9.688412912020000e0 9.854065180279999e0 1.002254904290000e1 1.019391290200000e1
1.036820598710000e1 1.054547836920000e1 1.072578097530000e1 1.090916560290000e1
1.109568493470000e1 1.128539255420000e1 1.147834296060000e1 1.167459158500000e1
1.187419480580000e1 1.207720996500000e1 1.228369538500000e1 1.249371038520000e1
1.270731529860000e1 1.292457149000000e1 1.314554137270000e1 1.337028842720000e1
1.359887721890000e1 1.383137341700000e1 1.406784381310000e1 1.430835634060000e1
1.455298009410000e1 1.480178534930000e1 1.505484358310000e1 1.531222749420000e1
1.557401102410000e1 1.584026937800000e1 1.611107904700000e1 1.638651782920000e1
1.666666485310000e1 1.695160059930000e1 1.724140692450000e1 1.753616708440000e1
1.783596575780000e1 1.814088907110000e1 1.845102462290000e1 1.876646150910000e1
1.908729034870000e1 1.941360330950000e1 1.974549413500000e1 2.008305817100000e1
2.042639239310000e1 2.077559543450000e1 2.113076761450000e1 2.149201096730000e1
2.185942927110000e1 2.223312807800000e1 2.261321474440000e1 2.299979846200000e1
2.339299028870000e1 2.379290318090000e1 2.419965202590000e1 2.461335367470000e1
2.503412697580000e1 2.546209280930000e1 2.589737412150000e1 2.634009596020000e1
2.679038551080000e1 2.724837213290000e1 2.771418739710001e1 2.818796512320001e1
2.866984141830000e1 2.915995471610000e1 2.965844581680000e1 3.016545792710000e1
3.068113670180000e1 3.120563028560000e1 3.173908935510000e1 3.228166716290000e1
3.283351958120000e1 3.339480514630000e1 3.396568510480000e1 3.454632345960000e1
3.513688701660000e1 3.573754543340000e1 3.634847126760000e1 3.696984002630000e1
3.760183021680001e1 3.824462339750000e1 3.889840423060000e1 3.956336053460000e1
4.023968333860000e1 4.092756693700000e1 4.162720894550000e1 4.233881035780001e1
4.306257560300000e1 4.379871260500000e1 4.454743284180000e1 4.530895140600000e1
4.608348706730000e1 4.687126233480000e1 4.767250352100000e1 4.848744080720000e1
4.931630830880000e1 5.015934414370000e1 5.101679049960000e1 5.188889370420000e1
5.277590429610001e1 5.367807709610000e1 5.459567128100001e1 5.552895045790001e1
5.647818273980000e1 5.744364082280001e1 5.842560206440001e1 5.942434856290000e1
6.044016723900000e1 6.147334991760000e1 6.252419341220000e1 6.359299960980000e1
6.468007555770000e1 6.578573355180001e1 6.691029122620001e1 6.805407164460000e1
6.921740339300000e1 7.040062067400000e1 7.160406340320001e1 7.282807730630001e1
7.407301401880000e1 7.533923118700000e1 7.662709257050000e1 7.793696814700001e1
7.926923421840001e1 8.062427351889999e1 8.200247532520001e1
</PP_R>
<PP_RAB>
4.201274875710001e-5 4.273089806350000e-5 4.346132313009999e-5 4.420423379380000e-5
4.495984347839999e-5 4.572836925610001e-5 4.651003190940000e-5 4.730505599490001e-5
4.811366990760000e-5 4.893610594649999e-5 4.977260038179999e-5 5.062339352200000e-5
5.148872978360000e-5 5.236885776090000e-5 5.326403029760001e-5 5.417450455950000e-5
5.510054210830000e-5 5.604240897660000e-5 5.700037574450000e-5 5.797471761730001e-5
5.896571450470001e-5 5.997365110080000e-5 6.099881696630000e-5 6.204150661160000e-5
6.310201958120000e-5 6.418066053990001e-5 6.527773936040003e-5 6.639357121230000e-5
6.752847665240001e-5 6.868278171710001e-5 6.985681801589999e-5 7.105092282679999e-5
7.226543919290000e-5 7.350071602120001e-5 7.475710818299999e-5 7.603497661540000e-5
7.733468842519999e-5 7.865661699450000e-5 8.000114208770002e-5 8.136864996109999e-5
8.275953347289999e-5 8.417419219729998e-5 8.561303253829999e-5 8.707646784680000e-5
8.856491853960001e-5 9.007881221960000e-5 9.161858379929999e-5 9.318467562520000e-5
9.477753760520001e-5 9.639762733780000e-5 9.804541024330000e-5 9.972135969789997e-5
1.014259571690000e-4 1.031596923560000e-4 1.049230633260000e-4 1.067165766610000e-4
1.085407476040000e-4 1.103961002030000e-4 1.122831674660000e-4 1.142024915100000e-4
1.161546237200000e-4 1.181401249050000e-4 1.201595654630000e-4 1.222135255380000e-4
1.243025951940000e-4 1.264273745800000e-4 1.285884741050000e-4 1.307865146100000e-4
1.330221275500000e-4 1.352959551730000e-4 1.376086507060000e-4 1.399608785410000e-4
1.423533144280000e-4 1.447866456680000e-4 1.472615713100000e-4 1.497788023510000e-4
1.523390619440000e-4 1.549430856020000e-4 1.575916214090000e-4 1.602854302400000e-4
1.630252859740000e-4 1.658119757170000e-4 1.686463000330000e-4 1.715290731670000e-4
1.744611232840000e-4 1.774432927060000e-4 1.804764381530000e-4 1.835614309880000e-4
1.866991574700000e-4 1.898905190070000e-4 1.931364324150000e-4 1.964378301840000e-4
1.997956607390000e-4 2.032108887220000e-4 2.066844952610000e-4 2.102174782560000e-4
2.138108526640000e-4 2.174656507930000e-4 2.211829225950000e-4 2.249637359710000e-4
2.288091770750000e-4 2.327203506280000e-4 2.366983802340000e-4 2.407444087050000e-4
2.448595983860000e-4 2.490451314910000e-4 2.533022104430000e-4 2.576320582180001e-4
2.620359186990000e-4 2.665150570280000e-4 2.710707599760000e-4 2.757043363080000e-4
2.804171171600000e-4 2.852104564239999e-4 2.900857311329999e-4 2.950443418590000e-4
3.000877131149999e-4 3.052172937650000e-4 3.104345574360000e-4 3.157410029490000e-4
3.211381547420000e-4 3.266275633120000e-4 3.322108056610000e-4 3.378894857460000e-4
3.436652349420000e-4 3.495397125089999e-4 3.555146060720000e-4 3.615916321019999e-4
3.677725364110001e-4 3.740590946520000e-4 3.804531128340000e-4 3.869564278320000e-4
3.935709079240000e-4 4.002984533219999e-4 4.071409967200000e-4 4.141005038470000e-4
4.211789740360000e-4 4.283784407940000e-4 4.357009723890000e-4 4.431486724420000e-4
4.507236805330001e-4 4.584281728150000e-4 4.662643626410000e-4 4.742345011950000e-4
4.823408781450000e-4 4.905858222960000e-4 4.989717022600000e-4 5.075009271380000e-4
5.161759472120000e-4 5.249992546480000e-4 5.339733842099999e-4 5.431009139920000e-4
5.523844661580000e-4 5.618267076920000e-4 5.714303511670000e-4 5.811981555240000e-4
5.911329268649999e-4 6.012375192560000e-4 6.115148355530000e-4 6.219678282280001e-4
6.325995002250000e-4 6.434129058169999e-4 6.544111514860001e-4 6.655973968160000e-4
6.769748553980001e-4 6.885467957550001e-4 7.003165422830000e-4 7.122874762030000e-4
7.244630365300000e-4 7.368467210690000e-4 7.494420874130001e-4 7.622527539649999e-4
7.752824009839999e-4 7.885347716340001e-4 8.020136730660001e-4 8.157229775060003e-4
8.296666233719998e-4 8.438486164040000e-4 8.582730308149999e-4 8.729440104600000e-4
8.878657700260002e-4 9.030425962470000e-4 9.184788491310002e-4 9.341789632160001e-4
9.501474488389999e-4 9.663888934379999e-4 9.829079628660001e-4 9.997094027319999e-4
1.016798039760000e-3 1.034178783200000e-3 1.051856626180000e-3 1.069836647220000e-3
1.088124011630000e-3 1.106723973000000e-3 1.125641874760000e-3 1.144883151650000e-3
1.164453331310000e-3 1.184358035890000e-3 1.204602983600000e-3 1.225193990450000e-3
1.246136971820000e-3 1.267437944230000e-3 1.289103027030000e-3 1.311138444190000e-3
1.333550526050000e-3 1.356345711170000e-3 1.379530548170000e-3 1.403111697590000e-3
1.427095933860000e-3 1.451490147180000e-3 1.476301345530000e-3 1.501536656680000e-3
1.527203330260000e-3 1.553308739810000e-3 1.579860384900000e-3 1.606865893300000e-3
1.634333023180000e-3 1.662269665320000e-3 1.690683845360000e-3 1.719583726150000e-3
1.748977610080000e-3 1.778873941430000e-3 1.809281308830000e-3 1.840208447750000e-3
1.871664242950000e-3 1.903657731060000e-3 1.936198103200000e-3 1.969294707590000e-3
2.002957052240000e-3 2.037194807700000e-3 2.072017809800000e-3 2.107436062520000e-3
2.143459740840000e-3 2.180099193670000e-3 2.217364946810000e-3 2.255267705990000e-3
2.293818359940000e-3 2.333027983520000e-3 2.372907840890000e-3 2.413469388770000e-3
2.454724279700000e-3 2.496684365420000e-3 2.539361700240000e-3 2.582768544539999e-3
2.626917368260000e-3 2.671820854510000e-3 2.717491903190000e-3 2.763943634700000e-3
2.811189393740000e-3 2.859242753090000e-3 2.908117517560000e-3 2.957827727910000e-3
3.008387664940000e-3 3.059811853520000e-3 3.112115066840000e-3 3.165312330600000e-3
3.219418927340000e-3 3.274450400840000e-3 3.330422560570001e-3 3.387351486260000e-3
3.445253532490000e-3 3.504145333380000e-3 3.564043807420000e-3 3.624966162280000e-3
3.686929899780000e-3 3.749952820879999e-3 3.814053030870000e-3 3.879248944490000e-3
3.945559291260000e-3 4.013003120870000e-3 4.081599808620000e-3 4.151369061010000e-3
4.222330921400000e-3 4.294505775760000e-3 4.367914358529999e-3 4.442577758570000e-3
4.518517425230001e-3 4.595755174510000e-3 4.674313195320000e-3 4.754214055860000e-3
4.835480710100000e-3 4.918136504370000e-3 5.002205184100000e-3 5.087710900569999e-3
5.174678217939999e-3 5.263132120230000e-3 5.353098018519999e-3 5.444601758290000e-3
5.537669626790001e-3 5.632328360610000e-3 5.728605153389999e-3 5.826527663560000e-3
5.926124022390001e-3 6.027422841980000e-3 6.130453223509999e-3 6.235244765619999e-3
6.341827572890000e-3 6.450232264510001e-3 6.560489983040001e-3 6.672632403390000e-3
6.786691741910000e-3 6.902700765640000e-3 7.020692801730000e-3 7.140701747000000e-3
7.262762077700000e-3 7.386908859410001e-3 7.513177757090000e-3 7.641605045360000e-3
7.772227618880000e-3 7.905083003000000e-3 8.040209364499999e-3 8.177645522559999e-3
8.317430959930000e-3 8.459605834270000e-3 8.604210989670001e-3 8.751287968380000e-3
8.900879022789999e-3 9.053027127489999e-3 9.207775991709999e-3 9.365170071789999e-3
9.525254584010002e-3 9.688075517550001e-3 9.853679647710001e-3 1.002211454940000e-2
1.019342861060000e-2 1.036767104660000e-2 1.054489191390000e-2 1.072514212450000e-2
1.090847346100000e-2 1.109493859080000e-2 1.128459108180000e-2 1.147748541740000e-2
1.167367701250000e-2 1.187322222910000e-2 1.207617839260000e-2 1.228260380860000e-2
1.249255777890000e-2 1.270610061940000e-2 1.292329367660000e-2 1.314419934610000e-2
1.336888108970000e-2 1.359740345420000e-2 1.382983208950000e-2 1.406623376800000e-2
1.430667640320000e-2 1.455122906970000e-2 1.479996202280000e-2 1.505294671850000e-2
1.531025583460000e-2 1.557196329090000e-2 1.583814427090000e-2 1.610887524330000e-2
1.638423398380000e-2 1.666429959770000e-2 1.694915254240000e-2 1.723887465060000e-2
1.753354915400000e-2 1.783326070670000e-2 1.813809541010000e-2 1.844814083740000e-2
1.876348605850000e-2 1.908422166610000e-2 1.941043980130000e-2 1.974223418020000e-2
2.007970012100000e-2 2.042293457110000e-2 2.077203613510000e-2 2.112710510310000e-2
2.148824347950000e-2 2.185555501250000e-2 2.222914522350000e-2 2.260912143780000e-2
2.299559281520000e-2 2.338867038140000e-2 2.378846706010000e-2 2.419509770500000e-2
2.460867913320000e-2 2.502933015880000e-2 2.545717162660000e-2 2.589232644720000e-2
2.633491963210000e-2 2.678507832980000e-2 2.724293186230000e-2 2.770861176180000e-2
2.818225180940000e-2 2.866398807250000e-2 2.915395894480000e-2 2.965230518530000e-2
3.015916995930001e-2 3.067469887920000e-2 3.119904004650000e-2 3.173234409430000e-2
3.227476423050000e-2 3.282645628190000e-2 3.338757873900000e-2 3.395829280140000e-2
3.453876242420000e-2 3.512915436510000e-2 3.572963823220000e-2 3.634038653300000e-2
3.696157472369999e-2 3.759338125950000e-2 3.823598764630000e-2 3.888957849240000e-2
3.955434156190000e-2 4.023046782840000e-2 4.091815152970000e-2 4.161759022420000e-2
4.232898484700000e-2 4.305253976800000e-2 4.378846285069999e-2 4.453696551129999e-2
4.529826278040000e-2 4.607257336370000e-2 4.686011970589999e-2 4.766112805360001e-2
4.847582852120000e-2 4.930445515620000e-2 5.014724600710000e-2 5.100444319150000e-2
5.187629296530000e-2 5.276304579430001e-2 5.366495642530000e-2 5.458228395990000e-2
5.551529192840000e-2 5.646424836600000e-2 5.742942588959999e-2 5.841110177590000e-2
5.940955804140000e-2 6.042508152329999e-2 6.145796396190000e-2 6.250850208430001e-2
6.357699768970000e-2 6.466375773630000e-2 6.576909442919999e-2 6.689332531019999e-2
6.803677334909999e-2 6.919976703650001e-2 7.038264047789999e-2 7.158573348989999e-2
7.280939169780000e-2 7.405396663510000e-2 7.531981584410000e-2 7.660730297850000e-2
7.791679790880001e-2 7.924867682730000e-2 8.060332235710000e-2 8.198112366170001e-2
8.338247655680000e-2 8.480778362379999e-2 8.625745432590000e-2 8.773190512560001e-2
8.923155960380001e-2 9.075684858250000e-2 9.230821024750000e-2 9.388609027510000e-2
9.549094195970000e-2 9.712322634400000e-2 9.878341235190000e-2 1.004719769230000e-1
1.021894051480000e-1 1.039361904120000e-1 1.057128345320000e-1 1.075198479040000e-1
1.093577496480000e-1 1.112270677570000e-1 1.131283392510000e-1 1.150621103270000e-1
1.170289365200000e-1 1.190293828630000e-1 1.210640240440000e-1 1.231334445770000e-1
1.252382389650000e-1 1.273790118760000e-1 1.295563783120000e-1 1.317709637890000e-1
1.340234045130000e-1 1.363143475680000e-1 1.386444510980000e-1 1.410143844950000e-1
1.434248285970000e-1 1.458764758760000e-1 1.483700306440000e-1 1.509062092510000e-1
1.534857402910000e-1 1.561093648140000e-1 1.587778365380000e-1 1.614919220610000e-1
1.642524010880000e-1 1.670600666520000e-1 1.699157253400000e-1 1.728201975280000e-1
1.757743176140000e-1 1.787789342610000e-1 1.818349106360000e-1 1.849431246620000e-1
1.881044692690000e-1 1.913198526500000e-1 1.945901985220000e-1 1.979164463930000e-1
2.012995518300000e-1 2.047404867320000e-1 2.082402396140000e-1 2.117998158870000e-1
2.154202381490000e-1 2.191025464770000e-1 2.228477987260000e-1 2.266570708360000e-1
2.305314571360000e-1 2.344720706630000e-1 2.384800434790000e-1 2.425565269960000e-1
2.467026923100000e-1 2.509197305330000e-1 2.552088531400000e-1 2.595712923110000e-1
2.640083012920000e-1 2.685211547490000e-1 2.731111491380000e-1 2.777796030750000e-1
2.825278577160000e-1 2.873572771440000e-1 2.922692487570000e-1 2.972651836700000e-1
3.023465171180000e-1 3.075147088690000e-1 3.127712436450000e-1 3.181176315480000e-1
3.235554084900000e-1 3.290861366390000e-1 3.347114048680000e-1 3.404328292070000e-1
3.462520533090000e-1 3.521707489260000e-1 3.581906163850000e-1 3.643133850760000e-1
3.705408139540000e-1 3.768746920360000e-1 3.833168389250000e-1 3.898691053250000e-1
3.965333735740000e-1 4.033115581870000e-1 4.102056064080000e-1 4.172174987610000e-1
4.243492496270000e-1 4.316029078220000e-1 4.389805571810000e-1 4.464843171580000e-1
4.541163434410000e-1 4.618788285610000e-1 4.697740025310000e-1 4.778041334810000e-1
4.859715283130000e-1 4.942785333610001e-1 5.027275350669999e-1 5.113209606660000e-1
5.200612788820001e-1 5.289510006400000e-1 5.379926797840000e-1 5.471889138150000e-1
5.565423446330000e-1 5.660556592960000e-1 5.757315907970000e-1 5.855729188430000e-1
5.955824706570000e-1 6.057631217900000e-1 6.161177969460000e-1 6.266494708220000e-1
6.373611689650000e-1 6.482559686390000e-1 6.593369997080000e-1 6.706074455380000e-1
6.820705439110000e-1 6.937295879520001e-1 7.055879270799999e-1 7.176489679650000e-1
7.299161755120000e-1 7.423930738509999e-1 7.550832473550000e-1 7.679903416640000e-1
7.811180647370000e-1 7.944701879150000e-1 8.080505470040000e-1 8.218630433790000e-1
8.359116451020000e-1 8.502003880649999e-1 8.647333771480000e-1 8.795147873969999e-1
8.945488652249999e-1 9.098399296309999e-1 9.253923734430000e-1 9.412106645769999e-1
9.572993473219999e-1 9.736630436440000e-1 9.903064545180001e-1 1.007234361270000e0
1.024451626970000e0 1.041963197790000e0 1.059774104480000e0 1.077889463760000e0
1.096314479830000e0 1.115054445830000e0 1.134114745400000e0 1.153500854180000e0
1.173218341440000e0 1.193272871630000e0 1.213670206020000e0 1.234416204380000e0
1.255516826630000e0 1.276978134560000e0 1.298806293600000e0 1.321007574560000e0
1.343588355430000e0 1.366555123240000e0 1.389914475890000e0
</PP_RAB>
</PP_MESH>
<PP_LOCAL columns="4">
-6.463978483250000e0 -6.463978483250000e0 -6.481836638210000e0 -6.481468510320000e0
-6.480868560240000e0 -6.481057039550000e0 -6.481050950460000e0 -6.481043427270000e0
-6.481033275330000e0 -6.481021072670000e0 -6.481006943740000e0 -6.480990871090000e0
-6.480972791350000e0 -6.480952621290000e0 -6.480930254220000e0 -6.480905610480000e0
-6.480878583640000e0 -6.480849054030000e0 -6.480816920690000e0 -6.480782059480000e0
-6.480744351880000e0 -6.480703676710000e0 -6.480659897760000e0 -6.480612881370000e0
-6.480562487020000e0 -6.480508567510000e0 -6.480450973280000e0 -6.480389547150000e0
-6.480324125150000e0 -6.480254538670000e0 -6.480180612040000e0 -6.480102164090000e0
-6.480019006450000e0 -6.479930942910000e0 -6.479837773760000e0 -6.479739284330000e0
-6.479635259030000e0 -6.479525474130000e0 -6.479409692710000e0 -6.479287675450000e0
-6.479159167610000e0 -6.479023911650000e0 -6.478881639240000e0 -6.478732066240000e0
-6.478574907730000e0 -6.478409864020000e0 -6.478236621940000e0 -6.478054862780000e0
-6.477864253470000e0 -6.477664448680000e0 -6.477455092710000e0 -6.477235816570000e0
-6.477006237670000e0 -6.476765961020000e0 -6.476514578630000e0 -6.476251665580000e0
-6.475976784330000e0 -6.475689482750000e0 -6.475389292940000e0 -6.475075728980000e0
-6.474748289190000e0 -6.474406457220000e0 -6.474049697280000e0 -6.473677455320000e0
-6.473289159550000e0 -6.472884217920000e0 -6.472462019220000e0 -6.472021933650000e0
-6.471563308630000e0 -6.471085469600000e0 -6.470587722140000e0 -6.470069348260000e0
-6.469529606110000e0 -6.468967730200000e0 -6.468382932230000e0 -6.467774397150000e0
-6.467141284000000e0 -6.466482725970000e0 -6.465797829450000e0 -6.465085673420000e0
-6.464345307530000e0 -6.463575752640000e0 -6.462776000990000e0 -6.461945013260000e0
-6.461081719980000e0 -6.460185019530000e0 -6.459253778870000e0 -6.458286831360000e0
-6.457282977050000e0 -6.456240982820000e0 -6.455159579940000e0 -6.454037464410000e0
-6.452873297770000e0 -6.451665704340000e0 -6.450413272570000e0 -6.449114553270000e0
-6.447768060410000e0 -6.446372269730000e0 -6.444925619610000e0 -6.443426509760000e0
-6.441873301650000e0 -6.440264318570000e0 -6.438597845530000e0 -6.436872128280000e0
-6.435085375980000e0 -6.433235758790000e0 -6.431321410020000e0 -6.429340426000000e0
-6.427290867110000e0 -6.425170757670000e0 -6.422978088430000e0 -6.420710816420000e0
-6.418366866980000e0 -6.415944134250000e0 -6.413440484980000e0 -6.410853757920000e0
-6.408181768000000e0 -6.405422307330000e0 -6.402573149540000e0 -6.399632050750000e0
-6.396596754850000e0 -6.393464995510000e0 -6.390234501750000e0 -6.386903000440000e0
-6.383468223200000e0 -6.379927909220000e0 -6.376279813260000e0 -6.372521709300000e0
-6.368651399470000e0 -6.364666718590000e0 -6.360565544330000e0 -6.356345802560000e0
-6.352005478860000e0 -6.347542624950000e0 -6.342955371410000e0 -6.338241935180000e0
-6.333400633970000e0 -6.328429894740000e0 -6.323328269620000e0 -6.318094445710000e0
-6.312727262590000e0 -6.307225723290000e0 -6.301589013560000e0 -6.295816514050000e0
-6.289907821270000e0 -6.283862760970000e0 -6.277681410790000e0 -6.271364114810000e0