<UPF version="2.0.1">
<PP_INFO>
Generated by new atomic code, or converted to UPF format
Author:
Generation date:
Pseudopotential type: US
Element: La
Functional:  SLA  PW   GGX  GGC
Suggested minimum cutoff for wavefunctions:   0. Ry
Suggested minimum cutoff for charge density:   0. Ry
The Pseudo was generated with a Scalar-Relativistic Calculation
L component and cutoff radius for Local Potential:  0   0.0000
Valence configuration:
nl pn  l   occ       Rcut    Rcut US       E pseu
5S  0  0  2.00     10.000      2.200     0.000000
5P  0  1  6.00     10.000      2.000     0.000000
5D  0  2  1.00     10.000      2.200     0.000000
6S  0  0  1.50     10.000      2.200     0.000000
6P  0  1  0.50     10.000      2.000     0.000000
Generation configuration: not available.
</PP_INFO>
<!--
END OF HUMAN READABLE SECTION
-->
<PP_HEADER 
comment=""
z_valence="1.100000000000e1"
wfc_cutoff="0.000000000000e0"
has_wfc="false"
core_correction="true"
date=""
l_max="2"
is_paw="false"
number_of_wfc="5"
generated="Generated by new atomic code, or converted to UPF format"
author=""
total_psenergy="-9.846235431391e1"
has_so="false"
has_gipaw="false"
pseudo_type="US"
is_coulomb="false"
l_local="0"
number_of_proj="6"
rho_cutoff="0.000000000000e0"
l_max_rho="0"
relativistic="scalar"
paw_as_gipaw="false"
mesh_size="907"
is_ultrasoft="true"
functional=" SLA  PW   GGX  GGC"
element="La"
/>
<PP_MESH mesh="907" rmax="2.029339834080e2" zmesh="5.700000000000e1">
<PP_R>
0.000000000000000e0 7.433475277190000e-7 1.499401544000000e-6 2.268379248530000e-6
3.050501553720000e-6 3.845993148170001e-6 4.655082561240000e-6 5.478002228650000e-6
6.314988559290001e-6 7.166282003150002e-6 8.032127120349999e-6 8.912772651439999e-6
9.808471588849999e-6 1.071948124950000e-5 1.164606334900000e-5 1.258848407620000e-5
1.354701417060000e-5 1.452192899910000e-5 1.551350863610000e-5 1.652203794310000e-5
1.754780665110000e-5 1.859110944350000e-5 1.965224604120000e-5 2.073152128800000e-5
2.182924523900000e-5 2.294573324890000e-5 2.408130606310000e-5 2.523628990980000e-5
2.641101659340000e-5 2.760582359020000e-5 2.882105414510001e-5 3.005705737040000e-5
3.131418834580000e-5 3.259280822080001e-5 3.389328431810000e-5 3.521599023930000e-5
3.656130597230000e-5 3.792961800010000e-5 3.932131941250000e-5 4.073681001820000e-5
4.217649646030000e-5 4.364079233290000e-5 4.513011829989999e-5 4.664490221569999e-5
4.818557924860000e-5 4.975259200510001e-5 5.134639065779999e-5 5.296743307400000e-5
5.461618494810000e-5 5.629311993440000e-5 5.799871978400000e-5 5.973347448260000e-5
6.149788239180001e-5 6.329245039170001e-5 6.511769402699999e-5 6.697413765500000e-5
6.886231459589998e-5 7.078276728650001e-5 7.273604743560000e-5 7.472271618280001e-5
7.674334425960000e-5 7.879851215340000e-5 8.088881027410000e-5 8.301483912390001e-5
8.517720946990000e-5 8.737654251900000e-5 8.961347009720001e-5 9.188863483039999e-5
9.420269032960002e-5 9.655630137790000e-5 9.895014412240000e-5 1.013849062680000e-4
1.038612872740000e-4 1.063799985570000e-4 1.089417636950000e-4 1.115473186330000e-4
1.141974118950000e-4 1.168928048040000e-4 1.196342716930000e-4 1.224226001320000e-4
1.252585911540000e-4 1.281430594850000e-4 1.310768337760000e-4 1.340607568450000e-4
1.370956859140000e-4 1.401824928600000e-4 1.433220644620000e-4 1.465153026600000e-4
1.497631248080000e-4 1.530664639430000e-4 1.564262690500000e-4 1.598435053360000e-4
1.633191545080000e-4 1.668542150510000e-4 1.704497025220000e-4 1.741066498320000e-4
1.778261075530000e-4 1.816091442130000e-4 1.854568466050000e-4 1.893703200990000e-4
1.933506889610000e-4 1.973990966740000e-4 2.015167062660000e-4 2.057047006480000e-4
2.099642829490000e-4 2.142966768650000e-4 2.187031270080000e-4 2.231848992670000e-4
2.277432811680000e-4 2.323795822450000e-4 2.370951344200000e-4 2.418912923770000e-4
2.467694339610000e-4 2.517309605680000e-4 2.567772975470000e-4 2.619098946150000e-4
2.671302262660000e-4 2.724397922010000e-4 2.778401177560000e-4 2.833327543389999e-4
2.889192798790000e-4 2.946012992770000e-4 3.003804448660000e-4 3.062583768840000e-4
3.122367839460000e-4 3.183173835330000e-4 3.245019224840000e-4 3.307921774980001e-4
3.371899556419999e-4 3.436970948740000e-4 3.503154645700000e-4 3.570469660600000e-4
3.638935331730000e-4 3.708571327950000e-4 3.779397654350000e-4 3.851434657950001e-4
3.924703033590000e-4 3.999223829860000e-4 4.075018455140000e-4 4.152108683750000e-4
4.230516662239999e-4 4.310264915689999e-4 4.391376354240000e-4 4.473874279630000e-4
4.557782391910000e-4 4.643124796280000e-4 4.729926009940000e-4 4.818210969210001e-4
4.908005036640001e-4 4.999334008340000e-4 5.092224121350000e-4 5.186702061210000e-4
5.282794969590000e-4 5.380530452130001e-4 5.479936586350000e-4 5.581041929690000e-4
5.683875527780000e-4 5.788466922710001e-4 5.894846161569999e-4 6.003043805050000e-4
6.113090936250000e-4 6.225019169570000e-4 6.338860659830001e-4 6.454648111480000e-4
6.572414788030000e-4 6.692194521560001e-4 6.814021722470000e-4 6.937931389349999e-4
7.063959119060000e-4 7.192141116919998e-4 7.322514207140001e-4 7.455115843380000e-4
7.589984119540000e-4 7.727157780659999e-4 7.866676234070001e-4 8.008579560730000e-4
8.152908526720001e-4 8.299704594949999e-4 8.449009937090000e-4 8.600867445690000e-4
8.755320746470002e-4 8.912414210860000e-4 9.072192968789999e-4 9.234702921589999e-4
9.399990755230000e-4 9.568103953720000e-4 9.739090812710000e-4 9.913000453420000e-4
1.008988283670000e-3 1.026978877750000e-3 1.045276995930000e-3 1.063887894900000e-3
1.082816921210000e-3 1.102069512820000e-3 1.121651200600000e-3 1.141567610010000e-3
1.161824462650000e-3 1.182427577910000e-3 1.203382874670000e-3 1.224696372980000e-3
1.246374195800000e-3 1.268422570750000e-3 1.290847831890000e-3 1.313656421580000e-3
1.336854892280000e-3 1.360449908460000e-3 1.384448248510000e-3 1.408856806690000e-3
1.433682595110000e-3 1.458932745730000e-3 1.484614512440000e-3 1.510735273110000e-3
1.537302531730000e-3 1.564323920560000e-3 1.591807202320000e-3 1.619760272420000e-3
1.648191161250000e-3 1.677108036440000e-3 1.706519205250000e-3 1.736433116950000e-3
1.766858365230000e-3 1.797803690660000e-3 1.829277983240000e-3 1.861290284920000e-3
1.893849792230000e-3 1.926965858870000e-3 1.960647998460000e-3 1.994905887210000e-3
2.029749366770000e-3 2.065188446970000e-3 2.101233308800000e-3 2.137894307230000e-3
2.175181974260000e-3 2.213107021930000e-3 2.251680345350001e-3 2.290913025910000e-3
2.330816334390000e-3 2.371401734230000e-3 2.412680884840000e-3 2.454665644930000e-3
2.497368075890000e-3 2.540800445319999e-3 2.584975230480000e-3 2.629905121950000e-3
2.675603027200000e-3 2.722082074370000e-3 2.769355615990000e-3 2.817437232820001e-3
2.866340737790000e-3 2.916080179930000e-3 2.966669848410000e-3 3.018124276670000e-3
3.070458246570000e-3 3.123686792650000e-3 3.177825206440000e-3 3.232889040860000e-3
3.288894114670000e-3 3.345856517070000e-3 3.403792612230000e-3 3.462719044080000e-3
3.522652741050000e-3 3.583610920930000e-3 3.645611095810000e-3 3.708671077160000e-3
3.772808980880000e-3 3.838043232550000e-3 3.904392572710000e-3 3.971876062250001e-3
4.040513087859999e-3 4.110323367630000e-3 4.181326956700000e-3 4.253544253040000e-3
4.326996003270001e-3 4.401703308660000e-3 4.477687631169999e-3 4.554970799630000e-3
4.633575016000000e-3 4.713522861740000e-3 4.794837304340000e-3 4.877541703840000e-3
4.961659819630000e-3 5.047215817220000e-3 5.134234275180000e-3 5.222740192230000e-3
5.312758994419999e-3 5.404316542399999e-3 5.497439138880001e-3 5.592153536190001e-3
5.688486943930000e-3 5.786467036840000e-3 5.886121962690000e-3 5.987480350410000e-3
6.090571318319999e-3 6.195424482450001e-3 6.302069965090000e-3 6.410538403420000e-3
6.520860958319998e-3 6.633069323330000e-3 6.747195733729999e-3 6.863272975850000e-3
6.981334396420000e-3 7.101413912209999e-3 7.223546019740001e-3 7.347765805200000e-3
7.474108954519999e-3 7.602611763660000e-3 7.733311148980000e-3 7.866244657890000e-3
8.001450479600001e-3 8.138967456150002e-3 8.278835093480000e-3 8.421093572880000e-3
8.565783762440001e-3 8.712947228870000e-3 8.862626249360000e-3 9.014863823819999e-3
9.169703687149999e-3 9.327190321850001e-3 9.487368970779999e-3 9.650285650160001e-3
9.815987162810000e-3 9.984521111560001e-3 1.015593591300000e-2 1.033028081120000e-2
1.050760589210000e-2 1.068796209780000e-2 1.087140124110000e-2 1.105797602060000e-2
1.124774003550000e-2 1.144074780140000e-2 1.163705476580000e-2 1.183671732370000e-2
1.203979283440000e-2 1.224633963750000e-2 1.245641707000000e-2 1.267008548300000e-2
1.288740625930000e-2 1.310844183100000e-2 1.333325569730000e-2 1.356191244290000e-2
1.379447775640000e-2 1.403101844940000e-2 1.427160247550000e-2 1.451629894970000e-2
1.476517816860000e-2 1.501831163050000e-2 1.527577205560000e-2 1.553763340730000e-2
1.580397091340000e-2 1.607486108740000e-2 1.635038175100000e-2 1.663061205570000e-2
1.691563250640000e-2 1.720552498400000e-2 1.750037276880000e-2 1.780026056510000e-2
1.810527452470000e-2 1.841550227220000e-2 1.873103293020000e-2 1.905195714440000e-2
1.937836711010000e-2 1.971035659870000e-2 2.004802098420000e-2 2.039145727120000e-2
2.074076412220000e-2 2.109604188630000e-2 2.145739262790000e-2 2.182492015620000e-2
2.219873005460000e-2 2.257892971160000e-2 2.296562835110000e-2 2.335893706410000e-2
2.375896884070000e-2 2.416583860230000e-2 2.457966323450000e-2 2.500056162130000e-2
2.542865467860000e-2 2.586406538930000e-2 2.630691883840000e-2 2.675734224920000e-2
2.721546501960000e-2 2.768141875940000e-2 2.815533732800000e-2 2.863735687320000e-2
2.912761586980000e-2 2.962625515970000e-2 3.013341799240000e-2 3.064925006590000e-2
3.117389956880000e-2 3.170751722270000e-2 3.225025632570000e-2 3.280227279630000e-2
3.336372521790000e-2 3.393477488520000e-2 3.451558584960001e-2 3.510632496680000e-2
3.570716194470000e-2 3.631826939230000e-2 3.693982286880000e-2 3.757200093460000e-2
3.821498520210000e-2 3.886896038830000e-2 3.953411436760001e-2 4.021063822590000e-2
4.089872631540000e-2 4.159857631050000e-2 4.231038926450000e-2 4.303436966750001e-2
4.377072550520000e-2 4.451966831820000e-2 4.528141326340000e-2 4.605617917530000e-2
4.684418862920000e-2 4.764566800500000e-2 4.846084755210000e-2 4.928996145590000e-2
5.013324790480000e-2 5.099094915860000e-2 5.186331161830000e-2 5.275058589680000e-2
5.365302689080000e-2 5.457089385420000e-2 5.550445047230000e-2 5.645396493780000e-2
5.741971002810001e-2 5.840196318280000e-2 5.940100658440000e-2 6.041712723860000e-2
6.145061705729999e-2 6.250177294210001e-2 6.357089686980000e-2 6.465829597889999e-2
6.576428265820001e-2 6.688917463620001e-2 6.803329507270001e-2 6.919697265129999e-2
7.038054167410000e-2 7.158434215749999e-2 7.280871993010001e-2 7.405402673200000e-2
7.532062031570000e-2 7.660886454910000e-2 7.791912951970000e-2 7.925179164140000e-2
8.060723376209999e-2 8.198584527430000e-2 8.338802222620000e-2 8.481416743620001e-2
8.626469060830001e-2 8.774000844960000e-2 8.924054479040000e-2 9.076673070580000e-2
9.231900463950000e-2 9.389781252970000e-2 9.550360793730000e-2 9.713685217640000e-2
9.879801444640000e-2 1.004875719670000e-1 1.022060101160000e-1 1.039538225660000e-1
1.057315114310000e-1 1.075395874060000e-1 1.093785699160000e-1 1.112489872660000e-1
1.131513767910000e-1 1.150862850090000e-1 1.170542677830000e-1 1.190558904750000e-1
1.210917281150000e-1 1.231623655570000e-1 1.252683976570000e-1 1.274104294360000e-1
1.295890762590000e-1 1.318049640090000e-1 1.340587292670000e-1 1.363510194970000e-1
1.386824932300000e-1 1.410538202520000e-1 1.434656818000000e-1 1.459187707550000e-1
1.484137918430000e-1 1.509514618340000e-1 1.535325097510000e-1 1.561576770810000e-1
1.588277179820000e-1 1.615433995070000e-1 1.643055018170000e-1 1.671148184110000e-1
1.699721563510000e-1 1.728783364960000e-1 1.758341937350000e-1 1.788405772280000e-1
1.818983506500000e-1 1.850083924430000e-1 1.881715960590000e-1 1.913888702260000e-1
1.946611392050000e-1 1.979893430560000e-1 2.013744379060000e-1 2.048173962290000e-1
2.083192071190000e-1 2.118808765790000e-1 2.155034278080000e-1 2.191879014940000e-1
2.229353561160000e-1 2.267468682450000e-1 2.306235328540000e-1 2.345664636340000e-1
2.385767933140000e-1 2.426556739820000e-1 2.468042774220000e-1 2.510237954490000e-1
2.553154402480000e-1 2.596804447240000e-1 2.641200628610000e-1 2.686355700740000e-1
2.732282635800000e-1 2.778994627720000e-1 2.826505095960000e-1 2.874827689340000e-1
2.923976290020000e-1 2.973965017430000e-1 3.024808232370000e-1 3.076520541110000e-1
3.129116799610000e-1 3.182612117730000e-1 3.237021863660000e-1 3.292361668270000e-1
3.348647429600000e-1 3.405895317460000e-1 3.464121778080000e-1 3.523343538770000e-1
3.583577612820000e-1 3.644841304300000e-1 3.707152213080000e-1 3.770528239880000e-1
3.834987591420000e-1 3.900548785610000e-1 3.967230656920000e-1 4.035052361750000e-1
4.104033383980000e-1 4.174193540510000e-1 4.245552986990000e-1 4.318132223630000e-1
4.391952101030000e-1 4.467033826200000e-1 4.543398968680000e-1 4.621069466700000e-1
4.700067633480000e-1 4.780416163670000e-1 4.862138139850000e-1 4.945257039159999e-1
5.029796740050000e-1 5.115781529140000e-1 5.203236108210000e-1 5.292185601240000e-1
5.382655561730000e-1 5.474671979920000e-1 5.568261290370000e-1 5.663450379460000e-1
5.760266593190000e-1 5.858737744970000e-1 5.958892123660000e-1 6.060758501680001e-1
6.164366143260001e-1 6.269744812880001e-1 6.376924783790000e-1 6.485936846720000e-1
6.596812318730000e-1 6.709583052200000e-1 6.824281443959999e-1 6.940940444660000e-1
7.059593568170000e-1 7.180274901230001e-1 7.303019113250000e-1 7.427861466270000e-1
7.554837825089999e-1 7.683984667550000e-1 7.815339095050000e-1 7.948938843160001e-1
8.084822292509999e-1 8.223028479789999e-1 8.363597108960001e-1 8.506568562660000e-1
8.651983913830000e-1 8.799884937490001e-1 8.950314122729999e-1 9.103314684950000e-1
9.258930578259999e-1 9.417206508080000e-1 9.578187944030001e-1 9.741921132960000e-1
9.908453112240000e-1 1.007783172330000e0 1.025010562530000e0 1.042532430930000e0
1.060353811210000e0 1.078479823120000e0 1.096915673900000e0 1.115666659820000e0
1.134738167680000e0 1.154135676350000e0 1.173864758350000e0 1.193931081480000e0
1.214340410400000e0 1.235098608320000e0 1.256211638650000e0 1.277685566780000e0
1.299526561730000e0 1.321740898020000e0 1.344334957380000e0 1.367315230650000e0
1.390688319620000e0 1.414460938930000e0 1.438639917990000e0 1.463232202950000e0
1.488244858700000e0 1.513685070890000e0 1.539560148000000e0 1.565877523450000e0
1.592644757700000e0 1.619869540460000e0 1.647559692890000e0 1.675723169840000e0
1.704368062110000e0 1.733502598840000e0 1.763135149810000e0 1.793274227890000e0
1.823928491450000e0 1.855106746860000e0 1.886817951030000e0 1.919071213980000e0
1.951875801450000e0 1.985241137560000e0 2.019176807520000e0 2.053692560410000e0
2.088798311910000e0 2.124504147250000e0 2.160820324010000e0 2.197757275120000e0
2.235325611870000e0 2.273536126900000e0 2.312399797360000e0 2.351927788020000e0
2.392131454530000e0 2.433022346600000e0 2.474612211400000e0 2.516912996900000e0
2.559936855290000e0 2.603696146500000e0 2.648203441720000e0 2.693471527030000e0
2.739513407090000e0 2.786342308830000e0 2.833971685290000e0 2.882415219470000e0
2.931686828250000e0 2.981800666430000e0 3.032771130730000e0 3.084612863980000e0
3.137340759310000e0 3.190969964420000e0 3.245515885950000e0 3.300994193880000e0
3.357420826060000e0 3.414811992770000e0 3.473184181370000e0 3.532554161080000e0
3.592938987730000e0 3.654356008720000e0 3.716822867960000e0 3.780357510990000e0
3.844978190070000e0 3.910703469470000e0 3.977552230800000e0 4.045543678410000e0
4.114697344920000e0 4.185033096850000e0 4.256571140300000e0 4.329332026770000e0
4.403336659040000e0 4.478606297210000e0 4.555162564810000e0 4.633027454950000e0
4.712223336730000e0 4.792772961570000e0 4.874699469840000e0 4.958026397430000e0
5.042777682550000e0 5.128977672610000e0 5.216651131200000e0 5.305823245210000e0
5.396519632050000e0 5.488766347060000e0 5.582589890910000e0 5.678017217300000e0
5.775075740660000e0 5.873793344020000e0 5.974198387040000e0 6.076319714140000e0
6.180186662810000e0 6.285829072010000e0 6.393277290750000e0 6.502562186840000e0
6.613715155710000e0 6.726768129450000e0 6.841753586000000e0 6.958704558460000e0
7.077654644570000e0 7.198638016400000e0 7.321689430120000e0 7.446844236020000e0
7.574138388670000e0 7.703608457200000e0 7.835291635860000e0 7.969225754690000e0
8.105449290350000e0 8.244001377240000e0 8.384921818690000e0 8.528251098420000e0
8.674030392150000e0 8.822301579459999e0 8.973107255790000e0 9.126490744680000e0
9.282496110249999e0 9.441168169830000e0 9.602552506820000e0 9.766695483820000e0
9.933644255930000e0 1.010344678430000e1 1.027615184990000e1 1.045180906760000e1
1.063046890030000e1 1.081218267340000e1 1.099700259000000e1 1.118498174500000e1
1.137617414140000e1 1.157063470490000e1 1.176841930040000e1 1.196958474760000e1
1.217418883730000e1 1.238229034830000e1 1.259394906430000e1 1.280922579060000e1
1.302818237210000e1 1.325088171080000e1 1.347738778390000e1 1.370776566220000e1
1.394208152880000e1 1.418040269810000e1 1.442279763520000e1 1.466933597550000e1
1.492008854460000e1 1.517512737890000e1 1.543452574620000e1 1.569835816650000e1
1.596670043390000e1 1.623962963780000e1 1.651722418560000e1 1.679956382470000e1
1.708672966600000e1 1.737880420650000e1 1.767587135360000e1 1.797801644910000e1
1.828532629330000e1 1.859788917030000e1 1.891579487360000e1 1.923913473120000e1
1.956800163230000e1 1.990249005420000e1 2.024269608890000e1 2.058871747090000e1
2.094065360550000e1 2.129860559720000e1 2.166267627860000e1 2.203297024020000e1
2.240959386030000e1 2.279265533550000e1 2.318226471210000e1 2.357853391720000e1
2.398157679140000e1 2.439150912090000e1 2.480844867160000e1 2.523251522200000e1
2.566383059820000e1 2.610251870880000e1 2.654870558050000e1 2.700251939400000e1
2.746409052130000e1 2.793355156280001e1 2.841103738570000e1 2.889668516230000e1
2.939063440990000e1 2.989302703050000e1 3.040400735190000e1 3.092372216860000e1
3.145232078490000e1 3.198995505680000e1 3.253677943620000e1 3.309295101520000e1
3.365862957120000e1 3.423397761270000e1 3.481916042590000e1 3.541434612260000e1
3.601970568820000e1 3.663541303070000e1 3.726164503090000e1 3.789858159320000e1
3.854640569710000e1 3.920530345000000e1 3.987546414040000e1 4.055708029240001e1
4.125034772140000e1 4.195546558950000e1 4.267263646350000e1 4.340206637260000e1
4.414396486810000e1 4.489854508300001e1 4.566602379350001e1 4.644662148150000e1
4.724056239750000e1 4.804807462550000e1 4.886939014800000e1 4.970474491310000e1
5.055437890220000e1 5.141853619850000e1 5.229746505770001e1 5.319141797920000e1
5.410065177820001e1 5.502542766010000e1 5.596601129510001e1 5.692267289460000e1
5.789568728900001e1 5.888533400650001e1 5.989189735360000e1 6.091566649620000e1
6.195693554360000e1 6.301600363210000e1 6.409317501160000e1 6.518875913240000e1
6.630307073480001e1 6.743642993890001e1 6.858916233690000e1 6.976159908640000e1
7.095407700590001e1 7.216693867120000e1 7.340053251400001e1 7.465521292190001e1
7.593134034030000e1 7.722928137600000e1 7.854940890220000e1 7.989210216610001e1
8.125774689750001e1 8.264673541960001e1 8.405946676210000e1 8.549634677520000e1
8.695778824680001e1 8.844421102069999e1 8.995604211760002e1 9.149371585700001e1
9.305767398310001e1 9.464836579060000e1 9.626624825460000e1 9.791178616140002e1
9.958545224210001e1 1.012877273090000e2 1.030191003920000e2 1.047800688820000e2
1.065711386700000e2 1.083928242970000e2 1.102456490970000e2 1.121301453510000e2
1.140468544390000e2 1.159963269940000e2 1.179791230610000e2 1.199958122600000e2
1.220469739460000e2 1.241331973790000e2 1.262550818890000e2 1.284132370540000e2
1.306082828700000e2 1.328408499300000e2 1.351115796080000e2 1.374211242410000e2
1.397701473170000e2 1.421593236640000e2 1.445893396450000e2 1.470608933590000e2
1.495746948340000e2 1.521314662370000e2 1.547319420790000e2 1.573768694270000e2
1.600670081150000e2 1.628031309710000e2 1.655860240280000e2 1.684164867580000e2
1.712953322980000e2 1.742233876850000e2 1.772014940920000e2 1.802305070720000e2
1.833112968020000e2 1.864447483320000e2 1.896317618440000e2 1.928732529030000e2
1.961701527280001e2 1.995234084550001e2 2.029339834080000e2
</PP_R>
<PP_RAB>
7.370657676679999e-7 7.496648783069999e-7 7.624793531590001e-7 7.755128735750001e-7
7.887691838319999e-7 8.022520922130001e-7 8.159654720950002e-7 8.299132630680003e-7
8.440994720619999e-7 8.585281745009999e-7 8.732035154700000e-7 8.881297109120000e-7
9.033110488350003e-7 9.187518905409998e-7 9.344566718880001e-7 9.504299045530001e-7
9.666761773390000e-7 9.832001574840000e-7 1.000006592010000e-6 1.017100309080000e-6
1.034486219380000e-6 1.052169317560000e-6 1.070154683620000e-6 1.088447484410000e-6
1.107052975110000e-6 1.125976500700000e-6 1.145223497550000e-6 1.164799494950000e-6
1.184710116710000e-6 1.204961082760000e-6 1.225558210810000e-6 1.246507418010000e-6
1.267814722680000e-6 1.289486245990000e-6 1.311528213740000e-6 1.333946958160000e-6
1.356748919740000e-6 1.379940649030000e-6 1.403528808560000e-6 1.427520174760000e-6
1.451921639880000e-6 1.476740213990000e-6 1.501983026990000e-6 1.527657330650000e-6
1.553770500690000e-6 1.580330038940000e-6 1.607343575430000e-6 1.634818870620000e-6
1.662763817640000e-6 1.691186444520000e-6 1.720094916550000e-6 1.749497538560000e-6
1.779402757360000e-6 1.809819164140000e-6 1.840755496940000e-6 1.872220643180000e-6
1.904223642170000e-6 1.936773687780000e-6 1.969880130980000e-6 2.003552482630000e-6
2.037800416140001e-6 2.072633770270000e-6 2.108062551970000e-6 2.144096939260000e-6
2.180747284110000e-6 2.218024115450000e-6 2.255938142200001e-6 2.294500256320000e-6
2.333721535970000e-6 2.373613248650000e-6 2.414186854490000e-6 2.455454009489999e-6
2.497426568920000e-6 2.540116590669999e-6 2.583536338770001e-6 2.627698286859999e-6
2.672615121830000e-6 2.718299747400000e-6 2.764765287880000e-6 2.812025091929999e-6
2.860092736380000e-6 2.908982030120000e-6 2.958707018110001e-6 3.009281985380000e-6
3.060721461120000e-6 3.113040222920000e-6 3.166253300930000e-6 3.220375982240001e-6
3.275423815259999e-6 3.331412614150000e-6 3.388358463429999e-6 3.446277722520000e-6
3.505187030510000e-6 3.565103310910001e-6 3.626043776510000e-6 3.688025934310000e-6
3.751067590600000e-6 3.815186856020000e-6 3.880402150800000e-6 3.946732210019999e-6
4.014196089040000e-6 4.082813168910000e-6 4.152603162009999e-6 4.223586117630001e-6
4.295782427820000e-6 4.369212833170000e-6 4.443898428819999e-6 4.519860670500000e-6
4.597121380680000e-6 4.675702754880000e-6 4.755627367999999e-6 4.836918180840000e-6
4.919598546670001e-6 5.003692217970000e-6 5.089223353210000e-6 5.176216523849999e-6
5.264696721320000e-6 5.354689364290000e-6 5.446220305900001e-6 5.539315841210000e-6
5.634002714770000e-6 5.730308128290000e-6 5.828259748450000e-6 5.927885714850001e-6
6.029214648100001e-6 6.132275658060000e-6 6.237098352150000e-6 6.343712843900001e-6
6.452149761589999e-6 6.562440257060000e-6 6.674616014620001e-6 6.788709260210001e-6
6.904752770600000e-6 7.022779882840000e-6 7.142824503850001e-6 7.264921120120000e-6
7.389104807650000e-6 7.515411242000001e-6 7.643876708570001e-6 7.774538113009999e-6
7.907432991799999e-6 8.042599523079998e-6 8.180076537560000e-6 8.319903529750000e-6
8.462120669219999e-6 8.606768812209999e-6 8.753889513330002e-6 8.903525037510002e-6
9.055718372149999e-6 9.210513239430000e-6 9.367954108950000e-6 9.528086210390001e-6
9.690955546629999e-6 9.856608906879998e-6 1.002509388010000e-5 1.019645886880000e-5
1.037075310290000e-5 1.054802665360000e-5 1.072833044830000e-5 1.091171628470000e-5
1.109823684610000e-5 1.128794571610000e-5 1.148089739450000e-5 1.167714731260000e-5
1.187675184910000e-5 1.207976834660000e-5 1.228625512780000e-5 1.249627151230000e-5
1.270987783390000e-5 1.292713545740000e-5 1.314810679670000e-5 1.337285533270000e-5
1.360144563130000e-5 1.383394336200000e-5 1.407041531690000e-5 1.431092942990000e-5
1.455555479600000e-5 1.480436169130000e-5 1.505742159330000e-5 1.531480720100000e-5
1.557659245660000e-5 1.584285256570000e-5 1.611366401980000e-5 1.638910461780000e-5
1.666925348840000e-5 1.695419111300000e-5 1.724399934850000e-5 1.753876145140000e-5
1.783856210110000e-5 1.814348742450000e-5 1.845362502070000e-5 1.876906398630000e-5
1.908989494080000e-5 1.941621005270000e-5 1.974810306600000e-5 2.008566932720000e-5
2.042900581250000e-5 2.077821115590000e-5 2.113338567730000e-5 2.149463141140000e-5
2.186205213710001e-5 2.223575340750000e-5 2.261584257940000e-5 2.300242884540000e-5
2.339562326400000e-5 2.379553879240000e-5 2.420229031870000e-5 2.461599469460000e-5
2.503677076949999e-5 2.546473942420000e-5 2.590002360570000e-5 2.634274836279999e-5
2.679304088180000e-5 2.725103052290000e-5 2.771684885780000e-5 2.819062970700000e-5
2.867250917860000e-5 2.916262570730000e-5 2.966112009400000e-5 3.016813554660000e-5
3.068381772070000e-5 3.120831476190000e-5 3.174177734800000e-5 3.228435873250000e-5
3.283621478850001e-5 3.339750405370000e-5 3.396838777540000e-5 3.454902995769999e-5
3.513959740779999e-5 3.574025978410000e-5 3.635118964560000e-5 3.697256250030000e-5
3.760455685690000e-5 3.824735427490000e-5 3.890113941770000e-5 3.956610010509999e-5
4.024242736740000e-5 4.093031550040000e-5 4.162996212100000e-5 4.234156822410001e-5
4.306533824040000e-5 4.380148009500000e-5 4.455020526730000e-5 4.531172885150000e-5
4.608626961860000e-5 4.687405007910000e-5 4.767529654710001e-5 4.849023920530000e-5
4.931911217090001e-5 5.016215356300001e-5 5.101960557120000e-5 5.189171452480000e-5
5.277873096380000e-5 5.368090971090000e-5 5.459850994460002e-5 5.553179527370000e-5
5.648103381299999e-5 5.744649826030001e-5 5.842846597499999e-5 5.942721905720000e-5
6.044304442959999e-5 6.147623391899999e-5 6.252708434080001e-5 6.359589758390001e-5
6.468298069779999e-5 6.578864598040002e-5 6.691321106790000e-5 6.805699902610001e-5
6.922033844320000e-5 7.040356352410000e-5 7.160701418629999e-5 7.283103615809999e-5
7.407598107730001e-5 7.534220659230000e-5 7.663007646540000e-5 7.793996067659998e-5
7.927223553029999e-5 8.062728376330000e-5 8.200549465469999e-5 8.340726413790001e-5
8.483299491400000e-5 8.628309656800003e-5 8.775798568590002e-5 8.925808597500001e-5
9.078382838489997e-5 9.233565123200000e-5 9.391400032499998e-5 9.551932909290000e-5
9.715209871559999e-5 9.881277825640000e-5 1.005018447960000e-4 1.022197835710000e-4
1.039670881120000e-4 1.057442603860000e-4 1.075518109390000e-4 1.093902590460000e-4
1.112601328580000e-4 1.131619695530000e-4 1.150963154920000e-4 1.170637263750000e-4
1.190647674020000e-4 1.211000134320000e-4 1.231700491530000e-4 1.252754692460000e-4
1.274168785560000e-4 1.295948922700000e-4 1.318101360890000e-4 1.340632464100000e-4
1.363548705070000e-4 1.386856667190000e-4 1.410563046400000e-4 1.434674653080000e-4
1.459198414020000e-4 1.484141374430000e-4 1.509510699940000e-4 1.535313678660000e-4
1.561557723300000e-4 1.588250373240000e-4 1.615399296790000e-4 1.643012293300000e-4
1.671097295440000e-4 1.699662371500000e-4 1.728715727670000e-4 1.758265710410000e-4
1.788320808870000e-4 1.818889657300000e-4 1.849981037520000e-4 1.881603881500000e-4
1.913767273860000e-4 1.946480454530000e-4 1.979752821360000e-4 2.013593932880000e-4
2.048013510960000e-4 2.083021443690000e-4 2.118627788180000e-4 2.154842773430000e-4
2.191676803320000e-4 2.229140459540000e-4 2.267244504670000e-4 2.305999885280000e-4
2.345417735040000e-4 2.385509377920000e-4 2.426286331490000e-4 2.467760310170000e-4
2.509943228630001e-4 2.552847205210000e-4 2.596484565400000e-4 2.640867845350000e-4
2.686009795540000e-4 2.731923384360000e-4 2.778621801910000e-4 2.826118463729999e-4
2.874427014699999e-4 2.923561332930000e-4 2.973535533750000e-4 3.024363973790000e-4
3.076061255080000e-4 3.128642229240000e-4 3.182122001780000e-4 3.236515936390000e-4
3.291839659390000e-4 3.348109064230000e-4 3.405340316020000e-4 3.463549856179999e-4
3.522754407199999e-4 3.582970977380000e-4 3.644216865800001e-4 3.706509667200000e-4
3.769867277110000e-4 3.834307896930000e-4 3.899850039220000e-4 3.966512532960000e-4
4.034314528990000e-4 4.103275505520000e-4 4.173415273700000e-4 4.244753983330001e-4
4.317312128630000e-4 4.391110554170000e-4 4.466170460800000e-4 4.542513411780000e-4
4.620161338960000e-4 4.699136549089999e-4 4.779461730220000e-4 4.861159958220000e-4
4.944254703400000e-4 5.028769837290000e-4 5.114729639440000e-4 5.202158804440000e-4
5.291082448999999e-4 5.381526119160000e-4 5.473515797630001e-4 5.567077911279999e-4
5.662239338679999e-4 5.759027417880000e-4 5.857469954210000e-4 5.957595228320000e-4
6.059432004240001e-4 6.163009537730000e-4 6.268357584599999e-4 6.375506409300000e-4
6.484486793630001e-4 6.595330045519999e-4 6.708068008120000e-4 6.822733068850000e-4
6.939358168760000e-4 7.057976811989999e-4 7.178623075390000e-4 7.301331618279999e-4
7.426137692449998e-4 7.553077152289999e-4 7.682186465030000e-4 7.813502721290000e-4
7.947063645679999e-4 8.082907607669998e-4 8.221073632610000e-4 8.361601412910002e-4
8.504531319500000e-4 8.649904413369999e-4 8.797762457390000e-4 8.948147928329998e-4
9.101104029000002e-4 9.256674700760000e-4 9.414904636020001e-4 9.575839291210000e-4
9.739524899719999e-4 9.906008485270000e-4 1.007533787540000e-3 1.024756171510000e-3
1.042272948090000e-3 1.060089149530000e-3 1.078209894070000e-3 1.096640387440000e-3
1.115385924380000e-3 1.134451890110000e-3 1.153843761920000e-3 1.173567110710000e-3
1.193627602620000e-3 1.214031000640000e-3 1.234783166280000e-3 1.255890061230000e-3
1.277357749080000e-3 1.299192397110000e-3 1.321400277970000e-3 1.343987771550000e-3
1.366961366820000e-3 1.390327663640000e-3 1.414093374690000e-3 1.438265327400000e-3
1.462850465910000e-3 1.487855853050000e-3 1.513288672380000e-3 1.539156230270000e-3
1.565465957960000e-3 1.592225413730000e-3 1.619442285040000e-3 1.647124390790000e-3
1.675279683500000e-3 1.703916251650000e-3 1.733042321960000e-3 1.762666261800000e-3
1.792796581540000e-3 1.823441937050000e-3 1.854611132150000e-3 1.886313121130000e-3