
     Program PHONON v.6.3 starts on 15Oct2018 at  4:44: 9 

     This program is part of the open-source Quantum ESPRESSO suite
     for quantum simulation of materials; please cite
         "P. Giannozzi et al., J. Phys.:Condens. Matter 21 395502 (2009);
         "P. Giannozzi et al., J. Phys.:Condens. Matter 29 465901 (2017);
          URL http://www.quantum-espresso.org", 
     in publications or presentations arising from this work. More details at
     http://www.quantum-espresso.org/quote

     Parallel version (MPI), running on    28 processors

     MPI processes distributed on     1 nodes
     K-points division:     npool     =      28

     Reading data from directory:
     ./LaH10.save/

     IMPORTANT: XC functional enforced from input :
     Exchange-correlation      = PW91 ( 1  4  2  2 0 0)
     Any further DFT definition will be discarded
     Please, verify this is what you really want


     G-vector sticks info
     --------------------
     sticks:   dense  smooth     PW     G-vecs:    dense   smooth      PW
     Sum        1369     913    283                33223    18149    3071



     Dynamical matrices for ( 1, 1, 1)  uniform grid of q-points
     (   1 q-points):
       N         xq(1)         xq(2)         xq(3) 
       1   0.000000000   0.000000000   0.000000000

     Calculation of q =    0.0000000   0.0000000   0.0000000

     el-ph                                                                      

     bravais-lattice index     =            2
     lattice parameter (alat)  =       9.0739  a.u.
     unit-cell volume          =     186.7769 (a.u.)^3
     number of atoms/cell      =           11
     number of atomic types    =            2
     kinetic-energy cut-off    =      80.0000  Ry
     charge density cut-off    =     480.0000  Ry
     convergence threshold     =      1.0E-13
     beta                      =       0.7000
     number of iterations used =            4
     Exchange-correlation      = PW91 ( 1  4  2  2 0 0)


     celldm(1)=    9.07391  celldm(2)=    0.00000  celldm(3)=    0.00000
     celldm(4)=    0.00000  celldm(5)=    0.00000  celldm(6)=    0.00000

     crystal axes: (cart. coord. in units of alat)
               a(1) = ( -0.5000  0.0000  0.5000 )  
               a(2) = (  0.0000  0.5000  0.5000 )  
               a(3) = ( -0.5000  0.5000  0.0000 )  

     reciprocal axes: (cart. coord. in units 2 pi/alat)
               b(1) = ( -1.0000 -1.0000  1.0000 )  
               b(2) = (  1.0000  1.0000  1.0000 )  
               b(3) = ( -1.0000  1.0000 -1.0000 )  


     Atoms inside the unit cell: 

     Cartesian axes

     site n.  atom      mass           positions (alat units)
        1     La 138.9055   tau(    1) = (    0.00000    0.00000    0.00000  )
        2     H    1.0080   tau(    2) = (   -0.37901    0.62099    0.62099  )
        3     H    1.0080   tau(    3) = (   -0.62099    0.37901    0.37901  )
        4     H    1.0080   tau(    4) = (   -0.62099    0.37901    0.62099  )
        5     H    1.0080   tau(    5) = (   -0.37901    0.62099    0.37901  )
        6     H    1.0080   tau(    6) = (   -0.62099    0.62099    0.37901  )
        7     H    1.0080   tau(    7) = (   -0.37901    0.37901    0.62099  )
        8     H    1.0080   tau(    8) = (   -0.37901    0.37901    0.37901  )
        9     H    1.0080   tau(    9) = (   -0.62099    0.62099    0.62099  )
       10     H    1.0080   tau(   10) = (   -0.75000    0.75000    0.75000  )
       11     H    1.0080   tau(   11) = (   -0.25000    0.25000    0.25000  )

     Computing dynamical matrix for 
                    q = (   0.0000000   0.0000000   0.0000000 )

     49 Sym.Ops. (with q -> -q+G )


     G cutoff = 1001.0834  (  33223 G-vectors)     FFT grid: ( 45, 45, 45)
     G cutoff =  667.3889  (  18149 G-vectors)  smooth grid: ( 40, 40, 40)

     number of k points=   413  gaussian smearing, width (Ry)=  0.0200

     PseudoPot. # 1 for La read from file:
     ./La.pw91-nsp-van.UPF
     MD5 check sum: 67a81199bfb670b6e1a328fba0d931ed
     Pseudo is Ultrasoft + core correction, Zval = 11.0
     Generated by new atomic code, or converted to UPF format
     Using radial grid of  907 points,  6 beta functions with: 
                l(1) =   0
                l(2) =   0
                l(3) =   1
                l(4) =   1
                l(5) =   2
                l(6) =   2
     Q(r) pseudized with  6 coefficients,  rinner =    1.200   1.200   1.200
                                                       1.200   1.200

     PseudoPot. # 2 for H  read from file:
     ./H.pw91-van_ak.UPF
     MD5 check sum: bbf060b360c08ad083c0d3b45d896bc6
     Pseudo is Ultrasoft, Zval =  1.0
     Generated by new atomic code, or converted to UPF format
     Using radial grid of  615 points,  1 beta functions with: 
                l(1) =   0
     Q(r) pseudized with  8 coefficients,  rinner =    0.800

     Mode symmetry, O_h (m-3m)  point group:


     Atomic displacements:
     There are  13 irreducible representations

     Representation     1      1 modes -A_1g G_1   G_1+  To be done

     Representation     2      2 modes -E_g  G_12  G_3+  To be done

     Representation     3      3 modes -T_1g G_15' G_4+  To be done

     Representation     4      3 modes -T_2g G_25' G_5+  To be done

     Representation     5      3 modes -T_2g G_25' G_5+  To be done

     Representation     6      3 modes -T_2g G_25' G_5+  To be done

     Representation     7      1 modes -A_2u G_2'  G_2-  To be done

     Representation     8      2 modes -E_u  G_12' G_3-  To be done

     Representation     9      3 modes -T_1u G_15  G_4-  To be done

     Representation    10      3 modes -T_1u G_15  G_4-  To be done

     Representation    11      3 modes -T_1u G_15  G_4-  To be done

     Representation    12      3 modes -T_1u G_15  G_4-  To be done

     Representation    13      3 modes -T_2u G_25  G_5-  To be done



     Alpha used in Ewald sum =   2.8000
     PHONON       :    27.52s CPU        30.94s WALL



     Representation #  1 mode #   1

     Self-consistent Calculation

     Pert. #  1: Fermi energy shift (Ry) =     4.4587E-02    -1.0340E-25

      iter #   1 total cpu time :    34.8 secs   av.it.:   4.1
      thresh= 1.000E-02 alpha_mix =  0.700 |ddv_scf|^2 =  3.986E-07

     Pert. #  1: Fermi energy shift (Ry) =     6.5880E-02     1.6156E-27

      iter #   2 total cpu time :    40.3 secs   av.it.:   9.3
      thresh= 6.313E-05 alpha_mix =  0.700 |ddv_scf|^2 =  2.217E-08

     Pert. #  1: Fermi energy shift (Ry) =     5.5530E-02    -4.0390E-28

      iter #   3 total cpu time :    45.6 secs   av.it.:   9.4
      thresh= 1.489E-05 alpha_mix =  0.700 |ddv_scf|^2 =  1.780E-10

     Pert. #  1: Fermi energy shift (Ry) =     5.5727E-02     3.1554E-30

      iter #   4 total cpu time :    51.0 secs   av.it.:   9.4
      thresh= 1.334E-06 alpha_mix =  0.700 |ddv_scf|^2 =  8.964E-12

     Pert. #  1: Fermi energy shift (Ry) =     5.5327E-02    -1.2622E-29

      iter #   5 total cpu time :    56.9 secs   av.it.:   9.0
      thresh= 2.994E-07 alpha_mix =  0.700 |ddv_scf|^2 =  4.748E-14

     End of self-consistent calculation

     Convergence has been achieved 


     Representation #  2 modes #   2  3

     Self-consistent Calculation

     Pert. #  1: Fermi energy shift (Ry) =    -1.3010E-17     1.9132E-42
     Pert. #  2: Fermi energy shift (Ry) =    -1.4456E-19     1.5306E-41

      iter #   1 total cpu time :    66.8 secs   av.it.:   4.2
      thresh= 1.000E-02 alpha_mix =  0.700 |ddv_scf|^2 =  4.702E-08

     Pert. #  1: Fermi energy shift (Ry) =     3.4694E-18     1.7937E-43
     Pert. #  2: Fermi energy shift (Ry) =     2.3130E-18     1.9431E-43

      iter #   2 total cpu time :    78.2 secs   av.it.:  10.3
      thresh= 2.168E-05 alpha_mix =  0.700 |ddv_scf|^2 =  4.865E-10

     Pert. #  1: Fermi energy shift (Ry) =    -1.0336E-17     1.8684E-45
     Pert. #  2: Fermi energy shift (Ry) =    -3.7586E-18     1.4947E-44

      iter #   3 total cpu time :    89.2 secs   av.it.:  10.3
      thresh= 2.206E-06 alpha_mix =  0.700 |ddv_scf|^2 =  1.118E-11

     Pert. #  1: Fermi energy shift (Ry) =     4.8428E-18    -9.3420E-46
     Pert. #  2: Fermi energy shift (Ry) =     0.0000E+00    -7.4736E-45

      iter #   4 total cpu time :    99.6 secs   av.it.:  10.3
      thresh= 3.344E-07 alpha_mix =  0.700 |ddv_scf|^2 =  1.082E-13

     Pert. #  1: Fermi energy shift (Ry) =    -1.0408E-17     1.1677E-46
     Pert. #  2: Fermi energy shift (Ry) =     3.4694E-18     9.3420E-46

      iter #   5 total cpu time :   109.7 secs   av.it.:   9.6
      thresh= 3.290E-08 alpha_mix =  0.700 |ddv_scf|^2 =  1.840E-16

     End of self-consistent calculation

     Convergence has been achieved 


     Representation #  3 modes #   4  5  6

     Self-consistent Calculation

     Pert. #  1: Fermi energy shift (Ry) =     1.3327E-19    -1.8176E-41
     Pert. #  2: Fermi energy shift (Ry) =    -7.6798E-20    -2.7981E-41
     Pert. #  3: Fermi energy shift (Ry) =     4.5175E-20    -7.6530E-42

      iter #   1 total cpu time :   119.9 secs   av.it.:   3.1
      thresh= 1.000E-02 alpha_mix =  0.700 |ddv_scf|^2 =  2.919E-10

     Pert. #  1: Fermi energy shift (Ry) =     1.2649E-19     2.9894E-44
     Pert. #  2: Fermi energy shift (Ry) =    -9.0915E-20    -1.2145E-43
     Pert. #  3: Fermi energy shift (Ry) =    -2.2588E-21    -7.4736E-44

      iter #   2 total cpu time :   135.8 secs   av.it.:  10.8
      thresh= 1.708E-06 alpha_mix =  0.700 |ddv_scf|^2 =  2.762E-11

     Pert. #  1: Fermi energy shift (Ry) =     1.4004E-19     1.5881E-44
     Pert. #  2: Fermi energy shift (Ry) =    -8.3009E-20     3.3981E-44
     Pert. #  3: Fermi energy shift (Ry) =    -3.6140E-20     1.3546E-44

      iter #   3 total cpu time :   151.1 secs   av.it.:   9.8
      thresh= 5.255E-07 alpha_mix =  0.700 |ddv_scf|^2 =  2.602E-14

     End of self-consistent calculation

     Convergence has been achieved 


     Representation #  4 modes #   7  8  9

     Self-consistent Calculation

     Pert. #  1: Fermi energy shift (Ry) =    -1.4456E-19     8.0117E-42
     Pert. #  2: Fermi energy shift (Ry) =     8.6736E-19     3.4259E-41
     Pert. #  3: Fermi energy shift (Ry) =     2.8912E-19     3.1270E-41

      iter #   1 total cpu time :   162.0 secs   av.it.:   4.0
      thresh= 1.000E-02 alpha_mix =  0.700 |ddv_scf|^2 =  2.677E-08

     Pert. #  1: Fermi energy shift (Ry) =    -2.5298E-19     9.9959E-44
     Pert. #  2: Fermi energy shift (Ry) =    -1.8070E-19    -1.5835E-43
     Pert. #  3: Fermi energy shift (Ry) =    -7.9508E-19     9.3420E-46

      iter #   2 total cpu time :   178.1 secs   av.it.:  10.8
      thresh= 1.636E-05 alpha_mix =  0.700 |ddv_scf|^2 =  2.533E-09

     Pert. #  1: Fermi energy shift (Ry) =    -7.9508E-19    -4.4374E-44
     Pert. #  2: Fermi energy shift (Ry) =    -7.2280E-20    -2.1720E-44
     Pert. #  3: Fermi energy shift (Ry) =    -4.3368E-19    -1.6582E-44

      iter #   3 total cpu time :   194.3 secs   av.it.:  10.7
      thresh= 5.033E-06 alpha_mix =  0.700 |ddv_scf|^2 =  8.065E-12

     Pert. #  1: Fermi energy shift (Ry) =     1.8070E-19    -5.3716E-45
     Pert. #  2: Fermi energy shift (Ry) =    -1.8070E-19     3.5032E-46
     Pert. #  3: Fermi energy shift (Ry) =    -6.5052E-19    -1.6115E-44

      iter #   4 total cpu time :   210.3 secs   av.it.:  10.8
      thresh= 2.840E-07 alpha_mix =  0.700 |ddv_scf|^2 =  2.897E-14

     End of self-consistent calculation

     Convergence has been achieved 


     Representation #  5 modes #  10 11 12

     Self-consistent Calculation

     Pert. #  1: Fermi energy shift (Ry) =     1.0842E-18     6.2778E-43
     Pert. #  2: Fermi energy shift (Ry) =     7.2280E-20    -6.8757E-43
     Pert. #  3: Fermi energy shift (Ry) =     2.8912E-19    -9.7157E-43

      iter #   1 total cpu time :   221.0 secs   av.it.:   4.0
      thresh= 1.000E-02 alpha_mix =  0.700 |ddv_scf|^2 =  1.760E-08

     Pert. #  1: Fermi energy shift (Ry) =     7.9508E-19    -1.4947E-44
     Pert. #  2: Fermi energy shift (Ry) =    -5.0596E-19     3.8302E-44
     Pert. #  3: Fermi energy shift (Ry) =    -6.1438E-19    -3.2697E-45

      iter #   2 total cpu time :   237.2 secs   av.it.:  11.0
      thresh= 1.327E-05 alpha_mix =  0.700 |ddv_scf|^2 =  1.690E-09

     Pert. #  1: Fermi energy shift (Ry) =     7.2280E-19    -1.0743E-44
     Pert. #  2: Fermi energy shift (Ry) =     7.2280E-20     1.2145E-44
     Pert. #  3: Fermi energy shift (Ry) =     1.0842E-19    -4.6710E-46

      iter #   3 total cpu time :   253.5 secs   av.it.:  10.8
      thresh= 4.111E-06 alpha_mix =  0.700 |ddv_scf|^2 =  7.924E-12

     Pert. #  1: Fermi energy shift (Ry) =     7.2280E-19    -2.5690E-45
     Pert. #  2: Fermi energy shift (Ry) =    -7.2280E-19    -2.1019E-45
     Pert. #  3: Fermi energy shift (Ry) =    -2.5298E-19     1.0510E-45

      iter #   4 total cpu time :   269.4 secs   av.it.:  10.8
      thresh= 2.815E-07 alpha_mix =  0.700 |ddv_scf|^2 =  2.702E-14

     End of self-consistent calculation

     Convergence has been achieved 


     Representation #  6 modes #  13 14 15

     Self-consistent Calculation

     Pert. #  1: Fermi energy shift (Ry) =    -5.7824E-19     6.2180E-42
     Pert. #  2: Fermi energy shift (Ry) =     1.4456E-19    -2.3915E-42
     Pert. #  3: Fermi energy shift (Ry) =    -2.2407E-18     6.2180E-42

      iter #   1 total cpu time :   280.0 secs   av.it.:   3.5
      thresh= 1.000E-02 alpha_mix =  0.700 |ddv_scf|^2 =  4.975E-10

     Pert. #  1: Fermi energy shift (Ry) =    -5.0596E-19     9.3420E-45
     Pert. #  2: Fermi energy shift (Ry) =     5.0596E-19     0.0000E+00
     Pert. #  3: Fermi energy shift (Ry) =    -1.3010E-18     2.4289E-44

      iter #   2 total cpu time :   296.3 secs   av.it.:  11.0
      thresh= 2.230E-06 alpha_mix =  0.700 |ddv_scf|^2 =  4.582E-11

     Pert. #  1: Fermi energy shift (Ry) =    -2.8912E-19    -2.3355E-45
     Pert. #  2: Fermi energy shift (Ry) =     1.5179E-18     2.3355E-46
     Pert. #  3: Fermi energy shift (Ry) =    -1.8070E-18     1.1677E-45

      iter #   3 total cpu time :   312.7 secs   av.it.:  10.7
      thresh= 6.769E-07 alpha_mix =  0.700 |ddv_scf|^2 =  4.364E-12

     Pert. #  1: Fermi energy shift (Ry) =     7.2280E-20     1.2845E-45
     Pert. #  2: Fermi energy shift (Ry) =     5.0596E-19    -1.4013E-45
     Pert. #  3: Fermi energy shift (Ry) =    -1.0119E-18     1.1677E-45

      iter #   4 total cpu time :   328.4 secs   av.it.:  10.6
      thresh= 2.089E-07 alpha_mix =  0.700 |ddv_scf|^2 =  1.549E-14

     End of self-consistent calculation

     Convergence has been achieved 


     Representation #  7 mode #  16

     Self-consistent Calculation

     Pert. #  1: Fermi energy shift (Ry) =     1.1029E-24     0.0000E+00

      iter #   1 total cpu time :   333.6 secs   av.it.:   3.9
      thresh= 1.000E-02 alpha_mix =  0.700 |ddv_scf|^2 =  2.628E-07

     Pert. #  1: Fermi energy shift (Ry) =     2.7573E-25     0.0000E+00

      iter #   2 total cpu time :   338.9 secs   av.it.:   8.9
      thresh= 5.127E-05 alpha_mix =  0.700 |ddv_scf|^2 =  3.939E-08

     Pert. #  1: Fermi energy shift (Ry) =     2.7573E-25     0.0000E+00

      iter #   3 total cpu time :   344.1 secs   av.it.:   8.8
      thresh= 1.985E-05 alpha_mix =  0.700 |ddv_scf|^2 =  5.830E-11

     Pert. #  1: Fermi energy shift (Ry) =     8.2718E-25     0.0000E+00

      iter #   4 total cpu time :   349.0 secs   av.it.:   7.8
      thresh= 7.635E-07 alpha_mix =  0.700 |ddv_scf|^2 =  4.610E-14

     End of self-consistent calculation

     Convergence has been achieved 


     Representation #  8 modes #  17 18

     Self-consistent Calculation

     Pert. #  1: Fermi energy shift (Ry) =    -1.1029E-24    -4.7020E-38
     Pert. #  2: Fermi energy shift (Ry) =    -1.1029E-24    -4.7020E-38

      iter #   1 total cpu time :   356.3 secs   av.it.:   3.0
      thresh= 1.000E-02 alpha_mix =  0.700 |ddv_scf|^2 =  6.331E-10

     Pert. #  1: Fermi energy shift (Ry) =    -5.5145E-25     1.5306E-40
     Pert. #  2: Fermi energy shift (Ry) =     4.4116E-24    -1.5306E-40

      iter #   2 total cpu time :   366.6 secs   av.it.:  10.0
      thresh= 2.516E-06 alpha_mix =  0.700 |ddv_scf|^2 =  6.144E-11

     Pert. #  1: Fermi energy shift (Ry) =    -4.4116E-24    -4.5918E-41
     Pert. #  2: Fermi energy shift (Ry) =     1.9301E-24     9.1835E-41

      iter #   3 total cpu time :   376.4 secs   av.it.:   8.8
      thresh= 7.838E-07 alpha_mix =  0.700 |ddv_scf|^2 =  5.195E-14

     End of self-consistent calculation

     Convergence has been achieved 


     Representation #  9 modes #  19 20 21

     Self-consistent Calculation

     Pert. #  1: Fermi energy shift (Ry) =     1.3511E-23    -3.7616E-36
     Pert. #  2: Fermi energy shift (Ry) =    -9.9262E-24    -3.0093E-36
     Pert. #  3: Fermi energy shift (Ry) =     3.3087E-24    -5.0154E-36

      iter #   1 total cpu time :   387.5 secs   av.it.:   4.0
      thresh= 1.000E-02 alpha_mix =  0.700 |ddv_scf|^2 =  1.437E-08

     Pert. #  1: Fermi energy shift (Ry) =     2.4815E-24     2.5714E-39
     Pert. #  2: Fermi energy shift (Ry) =     9.3747E-24     1.3469E-39
     Pert. #  3: Fermi energy shift (Ry) =     4.4116E-24     3.4285E-39

      iter #   2 total cpu time :   403.9 secs   av.it.:  11.2
      thresh= 1.199E-05 alpha_mix =  0.700 |ddv_scf|^2 =  2.149E-09

     Pert. #  1: Fermi energy shift (Ry) =     1.0202E-23    -2.9081E-40
     Pert. #  2: Fermi energy shift (Ry) =     3.5844E-24    -5.2040E-40
     Pert. #  3: Fermi energy shift (Ry) =     1.1029E-23    -1.5306E-40

      iter #   3 total cpu time :   420.1 secs   av.it.:  11.0
      thresh= 4.636E-06 alpha_mix =  0.700 |ddv_scf|^2 =  1.682E-11

     Pert. #  1: Fermi energy shift (Ry) =     6.6174E-24     1.7602E-40
     Pert. #  2: Fermi energy shift (Ry) =     1.3786E-24     2.2194E-40
     Pert. #  3: Fermi energy shift (Ry) =     5.5145E-24     3.0612E-40

      iter #   4 total cpu time :   436.3 secs   av.it.:  11.0
      thresh= 4.102E-07 alpha_mix =  0.700 |ddv_scf|^2 =  2.189E-13

     Pert. #  1: Fermi energy shift (Ry) =     1.9301E-24     2.2959E-41
     Pert. #  2: Fermi energy shift (Ry) =     1.0478E-23     1.8176E-41
     Pert. #  3: Fermi energy shift (Ry) =     8.8233E-24     1.5306E-41

      iter #   5 total cpu time :   452.6 secs   av.it.:  11.0
      thresh= 4.679E-08 alpha_mix =  0.700 |ddv_scf|^2 =  1.229E-14

     End of self-consistent calculation

     Convergence has been achieved 


     Representation # 10 modes #  22 23 24

     Self-consistent Calculation

     Pert. #  1: Fermi energy shift (Ry) =    -4.4116E-24     0.0000E+00
     Pert. #  2: Fermi energy shift (Ry) =     1.3235E-23     0.0000E+00
     Pert. #  3: Fermi energy shift (Ry) =     6.6174E-24    -6.2693E-38

      iter #   1 total cpu time :   467.5 secs   av.it.:   6.1
      thresh= 1.000E-02 alpha_mix =  0.700 |ddv_scf|^2 =  2.898E-07

     Pert. #  1: Fermi energy shift (Ry) =     2.2058E-24     4.8979E-40
     Pert. #  2: Fermi energy shift (Ry) =     2.2058E-24    -9.7958E-40
     Pert. #  3: Fermi energy shift (Ry) =     4.4116E-24    -1.4694E-39

      iter #   2 total cpu time :   487.2 secs   av.it.:  11.1
      thresh= 5.383E-05 alpha_mix =  0.700 |ddv_scf|^2 =  3.894E-08

     Pert. #  1: Fermi energy shift (Ry) =     2.2058E-24     0.0000E+00
     Pert. #  2: Fermi energy shift (Ry) =     6.6174E-24     1.2245E-40
     Pert. #  3: Fermi energy shift (Ry) =     0.0000E+00    -1.5306E-40

      iter #   3 total cpu time :   503.6 secs   av.it.:  10.8
      thresh= 1.973E-05 alpha_mix =  0.700 |ddv_scf|^2 =  5.675E-10

     Pert. #  1: Fermi energy shift (Ry) =     0.0000E+00    -1.5306E-41
     Pert. #  2: Fermi energy shift (Ry) =    -6.6174E-24     1.5306E-41
     Pert. #  3: Fermi energy shift (Ry) =    -8.8233E-24    -1.1479E-41

      iter #   4 total cpu time :   520.6 secs   av.it.:  11.1
      thresh= 2.382E-06 alpha_mix =  0.700 |ddv_scf|^2 =  1.190E-11

     Pert. #  1: Fermi energy shift (Ry) =    -4.4116E-24    -3.8265E-42
     Pert. #  2: Fermi energy shift (Ry) =     4.4116E-24    -1.9132E-42
     Pert. #  3: Fermi energy shift (Ry) =     5.5145E-24    -3.8265E-42

      iter #   5 total cpu time :   536.7 secs   av.it.:  11.0
      thresh= 3.449E-07 alpha_mix =  0.700 |ddv_scf|^2 =  4.295E-13

     Pert. #  1: Fermi energy shift (Ry) =     0.0000E+00     0.0000E+00
     Pert. #  2: Fermi energy shift (Ry) =    -3.3087E-24     0.0000E+00
     Pert. #  3: Fermi energy shift (Ry) =     3.3087E-24     0.0000E+00

      iter #   6 total cpu time :   552.9 secs   av.it.:  11.0
      thresh= 6.554E-08 alpha_mix =  0.700 |ddv_scf|^2 =  2.881E-15

     End of self-consistent calculation

     Convergence has been achieved 


     Representation # 11 modes #  25 26 27

     Self-consistent Calculation

     Pert. #  1: Fermi energy shift (Ry) =     4.4116E-24    -7.5232E-37
     Pert. #  2: Fermi energy shift (Ry) =     2.2058E-24    -5.6424E-37
     Pert. #  3: Fermi energy shift (Ry) =     1.5441E-23    -1.6300E-36

      iter #   1 total cpu time :   563.8 secs   av.it.:   4.0
      thresh= 1.000E-02 alpha_mix =  0.700 |ddv_scf|^2 =  1.941E-08

     Pert. #  1: Fermi energy shift (Ry) =     6.6174E-24     9.7958E-40
     Pert. #  2: Fermi energy shift (Ry) =     3.0330E-24     4.1020E-39
     Pert. #  3: Fermi energy shift (Ry) =     6.8932E-24     4.8979E-40

      iter #   2 total cpu time :   580.2 secs   av.it.:  11.1
      thresh= 1.393E-05 alpha_mix =  0.700 |ddv_scf|^2 =  3.128E-09

     Pert. #  1: Fermi energy shift (Ry) =     6.6174E-24    -3.6734E-40
     Pert. #  2: Fermi energy shift (Ry) =     6.8932E-24    -6.4285E-40
     Pert. #  3: Fermi energy shift (Ry) =     1.2408E-23     3.6734E-40

      iter #   3 total cpu time :   596.2 secs   av.it.:  10.8
      thresh= 5.592E-06 alpha_mix =  0.700 |ddv_scf|^2 =  8.874E-12

     Pert. #  1: Fermi energy shift (Ry) =     6.6174E-24     1.9132E-41
     Pert. #  2: Fermi energy shift (Ry) =     0.0000E+00     2.5829E-41
     Pert. #  3: Fermi energy shift (Ry) =     6.3417E-24    -1.5306E-41

      iter #   4 total cpu time :   612.2 secs   av.it.:  10.8
      thresh= 2.979E-07 alpha_mix =  0.700 |ddv_scf|^2 =  6.603E-14

     End of self-consistent calculation

     Convergence has been achieved 


     Representation # 12 modes #  28 29 30

     Self-consistent Calculation

     Pert. #  1: Fermi energy shift (Ry) =    -1.3786E-24    -3.1347E-37
     Pert. #  2: Fermi energy shift (Ry) =     1.3235E-23     9.4040E-38
     Pert. #  3: Fermi energy shift (Ry) =    -1.0598E-23    -1.2539E-37

      iter #   1 total cpu time :   622.6 secs   av.it.:   3.8
      thresh= 1.000E-02 alpha_mix =  0.700 |ddv_scf|^2 =  6.123E-09

     Pert. #  1: Fermi energy shift (Ry) =    -4.1359E-24     1.8367E-40
     Pert. #  2: Fermi energy shift (Ry) =     8.2718E-24    -3.0612E-40
     Pert. #  3: Fermi energy shift (Ry) =    -6.3762E-25     4.2857E-40

      iter #   2 total cpu time :   639.2 secs   av.it.:  11.1
      thresh= 7.825E-06 alpha_mix =  0.700 |ddv_scf|^2 =  2.864E-10

     Pert. #  1: Fermi energy shift (Ry) =     1.6544E-24    -7.6530E-42
     Pert. #  2: Fermi energy shift (Ry) =     1.1856E-23     5.3571E-41
     Pert. #  3: Fermi energy shift (Ry) =     1.9990E-24    -1.9898E-40

      iter #   3 total cpu time :   655.9 secs   av.it.:  11.0
      thresh= 1.692E-06 alpha_mix =  0.700 |ddv_scf|^2 =  8.087E-12

     Pert. #  1: Fermi energy shift (Ry) =     3.3087E-24     7.6530E-42
     Pert. #  2: Fermi energy shift (Ry) =     1.1029E-23     4.7831E-42
     Pert. #  3: Fermi energy shift (Ry) =    -4.3944E-24     9.5662E-43

      iter #   4 total cpu time :   672.1 secs   av.it.:  10.8
      thresh= 2.844E-07 alpha_mix =  0.700 |ddv_scf|^2 =  4.199E-13

     Pert. #  1: Fermi energy shift (Ry) =     3.0330E-24     1.4349E-42
     Pert. #  2: Fermi energy shift (Ry) =     9.0990E-24    -4.7831E-43
     Pert. #  3: Fermi energy shift (Ry) =     1.5596E-24    -2.5111E-42

      iter #   5 total cpu time :   688.5 secs   av.it.:  10.9
      thresh= 6.480E-08 alpha_mix =  0.700 |ddv_scf|^2 =  1.977E-14

     End of self-consistent calculation

     Convergence has been achieved 


     Representation # 13 modes #  31 32 33

     Self-consistent Calculation

     Pert. #  1: Fermi energy shift (Ry) =    -3.3087E-24    -1.7554E-36
     Pert. #  2: Fermi energy shift (Ry) =     5.5145E-24     1.2539E-36
     Pert. #  3: Fermi energy shift (Ry) =     0.0000E+00     5.0154E-37

      iter #   1 total cpu time :   699.3 secs   av.it.:   3.9
      thresh= 1.000E-02 alpha_mix =  0.700 |ddv_scf|^2 =  1.257E-09

     Pert. #  1: Fermi energy shift (Ry) =    -8.2718E-24    -1.2245E-40
     Pert. #  2: Fermi energy shift (Ry) =     7.7204E-24    -8.5713E-40
     Pert. #  3: Fermi energy shift (Ry) =     5.2388E-24    -7.3468E-40

      iter #   2 total cpu time :   715.2 secs   av.it.:  10.8
      thresh= 3.546E-06 alpha_mix =  0.700 |ddv_scf|^2 =  6.568E-11

     Pert. #  1: Fermi energy shift (Ry) =    -5.5145E-24     1.9132E-40
     Pert. #  2: Fermi energy shift (Ry) =     7.1689E-24    -1.3775E-40
     Pert. #  3: Fermi energy shift (Ry) =     6.3417E-24    -2.8316E-40

      iter #   3 total cpu time :   731.3 secs   av.it.:  10.8
      thresh= 8.104E-07 alpha_mix =  0.700 |ddv_scf|^2 =  4.734E-13

     Pert. #  1: Fermi energy shift (Ry) =    -5.5145E-24    -1.0523E-41
     Pert. #  2: Fermi energy shift (Ry) =     4.4116E-24     1.5306E-41
     Pert. #  3: Fermi energy shift (Ry) =     2.4815E-24     1.0523E-41

      iter #   4 total cpu time :   746.9 secs   av.it.:  10.2
      thresh= 6.881E-08 alpha_mix =  0.700 |ddv_scf|^2 =  1.765E-15

     End of self-consistent calculation

     Convergence has been achieved 

     Number of q in the star =    1
     List of q in the star:
          1   0.000000000   0.000000000   0.000000000

     Diagonalizing the dynamical matrix

     q = (    0.000000000   0.000000000   0.000000000 ) 

 **************************************************************************
     freq (    1) =       0.807354 [THz] =      26.930440 [cm-1]
     freq (    2) =       0.807354 [THz] =      26.930440 [cm-1]
     freq (    3) =       0.807354 [THz] =      26.930440 [cm-1]
     freq (    4) =      27.516542 [THz] =     917.853032 [cm-1]
     freq (    5) =      27.516542 [THz] =     917.853032 [cm-1]
     freq (    6) =      27.516542 [THz] =     917.853032 [cm-1]
     freq (    7) =      30.851787 [THz] =    1029.104840 [cm-1]
     freq (    8) =      30.851787 [THz] =    1029.104840 [cm-1]
     freq (    9) =      30.851787 [THz] =    1029.104840 [cm-1]
     freq (   10) =      34.430151 [THz] =    1148.466215 [cm-1]
     freq (   11) =      34.430151 [THz] =    1148.466215 [cm-1]
     freq (   12) =      34.430151 [THz] =    1148.466215 [cm-1]
     freq (   13) =      36.650454 [THz] =    1222.527555 [cm-1]
     freq (   14) =      36.650454 [THz] =    1222.527555 [cm-1]
     freq (   15) =      36.650454 [THz] =    1222.527555 [cm-1]
     freq (   16) =      36.750313 [THz] =    1225.858482 [cm-1]
     freq (   17) =      36.750313 [THz] =    1225.858482 [cm-1]
     freq (   18) =      36.750313 [THz] =    1225.858482 [cm-1]
     freq (   19) =      43.095730 [THz] =    1437.518824 [cm-1]
     freq (   20) =      43.095730 [THz] =    1437.518824 [cm-1]
     freq (   21) =      43.095730 [THz] =    1437.518824 [cm-1]
     freq (   22) =      43.373368 [THz] =    1446.779840 [cm-1]
     freq (   23) =      43.373368 [THz] =    1446.779840 [cm-1]
     freq (   24) =      44.816561 [THz] =    1494.919555 [cm-1]
     freq (   25) =      44.816561 [THz] =    1494.919555 [cm-1]
     freq (   26) =      52.794723 [THz] =    1761.042403 [cm-1]
     freq (   27) =      52.794723 [THz] =    1761.042403 [cm-1]
     freq (   28) =      52.794723 [THz] =    1761.042403 [cm-1]
     freq (   29) =      54.489795 [THz] =    1817.583929 [cm-1]
     freq (   30) =      54.489795 [THz] =    1817.583929 [cm-1]
     freq (   31) =      54.489795 [THz] =    1817.583929 [cm-1]
     freq (   32) =      58.572482 [THz] =    1953.767680 [cm-1]
     freq (   33) =      69.331207 [THz] =    2312.640149 [cm-1]
 **************************************************************************

     Mode symmetry, O_h (m-3m)  point group:

     freq (  1 -  3) =         26.9  [cm-1]   --> T_1u G_15  G_4- I  
     freq (  4 -  6) =        917.9  [cm-1]   --> T_2g G_25' G_5+ R  
     freq (  7 -  9) =       1029.1  [cm-1]   --> T_1u G_15  G_4- I  
     freq ( 10 - 12) =       1148.5  [cm-1]   --> T_2g G_25' G_5+ R  
     freq ( 13 - 15) =       1222.5  [cm-1]   --> T_1u G_15  G_4- I  
     freq ( 16 - 18) =       1225.9  [cm-1]   --> T_2u G_25  G_5-    
     freq ( 19 - 21) =       1437.5  [cm-1]   --> T_1g G_15' G_4+    
     freq ( 22 - 23) =       1446.8  [cm-1]   --> E_g  G_12  G_3+ R  
     freq ( 24 - 25) =       1494.9  [cm-1]   --> E_u  G_12' G_3-    
     freq ( 26 - 28) =       1761.0  [cm-1]   --> T_2g G_25' G_5+ R  
     freq ( 29 - 31) =       1817.6  [cm-1]   --> T_1u G_15  G_4- I  
     freq ( 32 - 32) =       1953.8  [cm-1]   --> A_2u G_2'  G_2-    
     freq ( 33 - 33) =       2312.6  [cm-1]   --> A_1g G_1   G_1+ R  

     PHONON       : 11m41.07s CPU    12m28.64s WALL

     INITIALIZATION: 
     phq_setup    :      0.31s CPU      0.55s WALL (       1 calls)
     phq_init     :     25.24s CPU     26.57s WALL (       1 calls)

     phq_init     :     25.24s CPU     26.57s WALL (       1 calls)
     set_drhoc    :      1.99s CPU      2.01s WALL (       3 calls)
     init_vloc    :      0.01s CPU      0.01s WALL (       1 calls)
     init_us_1    :      0.79s CPU      0.80s WALL (       1 calls)
     newd         :      0.12s CPU      0.13s WALL (       1 calls)
     dvanqq       :      5.51s CPU      5.82s WALL (       1 calls)
     drho         :     10.90s CPU     11.48s WALL (       1 calls)

     DYNAMICAL MATRIX:
     dynmat0      :      7.14s CPU      7.55s WALL (       1 calls)
     phqscf       :    673.46s CPU    717.29s WALL (       1 calls)
     dynmatrix    :      0.08s CPU      0.19s WALL (       1 calls)

     phqscf       :    673.46s CPU    717.29s WALL (       1 calls)
     solve_linter :    668.75s CPU    708.33s WALL (      13 calls)
     drhodv       :      3.13s CPU      3.23s WALL (      13 calls)

     dynmat0      :      7.14s CPU      7.55s WALL (       1 calls)
     dynmat_us    :      2.86s CPU      2.95s WALL (       1 calls)
     d2ionq       :      0.68s CPU      0.69s WALL (       1 calls)
     dynmatcc     :      1.46s CPU      1.47s WALL (       1 calls)

     dynmat_us    :      2.86s CPU      2.95s WALL (       1 calls)
     addusdynmat  :      0.00s CPU      0.00s WALL (       1 calls)

     phqscf       :    673.46s CPU    717.29s WALL (       1 calls)
     solve_linter :    668.75s CPU    708.33s WALL (      13 calls)

     solve_linter :    668.75s CPU    708.33s WALL (      13 calls)
     dvqpsi_us    :     15.25s CPU     15.79s WALL (     495 calls)
     ortho        :      2.82s CPU      3.02s WALL (    2130 calls)
     cgsolve      :    438.79s CPU    451.13s WALL (    2130 calls)
     incdrhoscf   :     47.30s CPU     49.30s WALL (    2130 calls)
     addusddens   :     11.20s CPU     11.59s WALL (      69 calls)
     vpsifft      :     33.88s CPU     35.02s WALL (    1635 calls)
     dv_of_drho   :      3.95s CPU      4.21s WALL (     142 calls)
     mix_pot      :      0.21s CPU      3.47s WALL (      56 calls)
     ef_shift     :      0.38s CPU      1.13s WALL (      69 calls)
     localdos     :      5.18s CPU      5.50s WALL (      13 calls)
     psymdvscf    :     21.11s CPU     21.62s WALL (      56 calls)
     newdq        :     18.43s CPU     18.90s WALL (      56 calls)
     adddvscf     :      2.04s CPU      2.15s WALL (    1635 calls)
     drhodvus     :      0.81s CPU      1.23s WALL (      13 calls)

     dvqpsi_us    :     15.25s CPU     15.79s WALL (     495 calls)
     dvqpsi_us_on :      1.97s CPU      2.04s WALL (     495 calls)

     cgsolve      :    438.79s CPU    451.13s WALL (    2130 calls)
     ch_psi       :    428.44s CPU    440.34s WALL (   25985 calls)

     ch_psi       :    428.44s CPU    440.34s WALL (   25985 calls)
     h_psi        :    392.03s CPU    402.81s WALL (   25985 calls)
     last         :     26.34s CPU     27.10s WALL (   25985 calls)

     h_psi        :    392.03s CPU    402.81s WALL (   25985 calls)
     add_vuspsi   :      8.22s CPU      8.43s WALL (   25985 calls)

     incdrhoscf   :     47.30s CPU     49.30s WALL (    2130 calls)
     addusdbec    :      1.25s CPU      1.28s WALL (    2625 calls)

     drhodvus     :      0.81s CPU      1.23s WALL (      13 calls)

      General routines
     calbec       :     16.64s CPU     17.24s WALL (   59050 calls)
     fft          :      4.77s CPU      5.23s WALL (    4061 calls)
     ffts         :      2.49s CPU      2.62s WALL (    3628 calls)
     fftw         :    393.30s CPU    404.92s WALL (  557879 calls)
     davcio       :      1.43s CPU      4.90s WALL (    9561 calls)
     write_rec    :      1.82s CPU     18.39s WALL (      69 calls)


     PHONON       : 11m41.07s CPU    12m28.64s WALL


   This run was terminated on:   4:56:37  15Oct2018            

=------------------------------------------------------------------------------=
   JOB DONE.
=------------------------------------------------------------------------------=

Collection and Platform Info
----------------------------
Parameter                 mpi_res_dir1.r026.pvt.bridges.psc.edu                                                                                                                                                                                                                                                                                                                                                                                              
------------------------  -----------------------------------------------------------------------------------------------------------------------------------------------------------------------------------------------------------------------------------------------------------------------------------------------------------------------------------------------------------------------------------------------------------------------------------
Application Command Line  /pylon5/mr5fpkp/yundi/qe-benchmark/q-e-mpich-gnu/bin/ph.x "-npool" "28" "-inp" "ph.in"                                                                                                                                                                                                                                                                                                                                             
Operating System          3.10.0-693.21.1.el7.x86_64 NAME="CentOS Linux"
VERSION="7 (Core)"
ID="centos"
ID_LIKE="rhel fedora"
VERSION_ID="7"
PRETTY_NAME="CentOS Linux 7 (Core)"
ANSI_COLOR="0;31"
CPE_NAME="cpe:/o:centos:centos:7"
HOME_URL="https://www.centos.org/"
BUG_REPORT_URL="https://bugs.centos.org/"

CENTOS_MANTISBT_PROJECT="CentOS-7"
CENTOS_MANTISBT_PROJECT_VERSION="7"
REDHAT_SUPPORT_PRODUCT="centos"
REDHAT_SUPPORT_PRODUCT_VERSION="7"

MPI Process Rank          0                                                                                                                                                                                                                                                                                                                                                                                                                                  
Computer Name             r026.pvt.bridges.psc.edu                                                                                                                                                                                                                                                                                                                                                                                                           
Result Size               32409472                                                                                                                                                                                                                                                                                                                                                                                                                           
Collection start time     08:44:02 15/10/2018 UTC                                                                                                                                                                                                                                                                                                                                                                                                            
Collection stop time      08:56:38 15/10/2018 UTC                                                                                                                                                                                                                                                                                                                                                                                                            

CPU
---
Parameter          mpi_res_dir1.r026.pvt.bridges.psc.edu                 
-----------------  ------------------------------------------------------
Name               Intel(R) Xeon(R) E5/E7 v3 Processor code named Haswell
Frequency          2294688294                                            
Logical CPU Count  28                                                    

Summary
-------
Elapsed Time:       754.779  
CPU Time:           20260.791
Average CPU Usage:  26.602   
CPI Rate:           0.469    

Event summary
-------------
Hardware Event Type       Hardware Event Count:Self  Hardware Event Sample Count:Self  Events Per Sample
------------------------  -------------------------  --------------------------------  -----------------
CPU_CLK_UNHALTED.THREAD              50227400000000                             21838  2300000000       
CPU_CLK_UNHALTED.REF_TSC             46492200000000                             20214  2300000000       
INST_RETIRED.ANY                    107134000000000                             46580  2300000000       
