
     Program PWSCF v.6.3 starts on 15Oct2018 at  4:43:27 

     This program is part of the open-source Quantum ESPRESSO suite
     for quantum simulation of materials; please cite
         "P. Giannozzi et al., J. Phys.:Condens. Matter 21 395502 (2009);
         "P. Giannozzi et al., J. Phys.:Condens. Matter 29 465901 (2017);
          URL http://www.quantum-espresso.org", 
     in publications or presentations arising from this work. More details at
     http://www.quantum-espresso.org/quote

     Parallel version (MPI), running on    28 processors

     MPI processes distributed on     1 nodes
     K-points division:     npool     =      28
     Reading input from scf.in
Warning: card &IONS ignored
Warning: card   ION_DYNAMICS = 'DAMP' ignored
Warning: card   ION_DAMPING = 0.2 ignored
Warning: card / ignored
Warning: card &CELL ignored
Warning: card   CELL_DYNAMICS = 'BFGS' ignored
Warning: card   PRESS = 2500D0 ignored
Warning: card / ignored

     Current dimensions of program PWSCF are:
     Max number of different atomic species (ntypx) = 10
     Max number of k-points (npk) =  40000
     Max angular momentum in pseudopotentials (lmaxx) =  3

     Subspace diagonalization in iterative solution of the eigenvalue problem:
     a serial algorithm will be used


     G-vector sticks info
     --------------------
     sticks:   dense  smooth     PW     G-vecs:    dense   smooth      PW
     Sum        1369     913    283                33223    18149    3071



     bravais-lattice index     =            2
     lattice parameter (alat)  =       9.0739  a.u.
     unit-cell volume          =     186.7769 (a.u.)^3
     number of atoms/cell      =           11
     number of atomic types    =            2
     number of electrons       =        21.00
     number of Kohn-Sham states=           15
     kinetic-energy cutoff     =      80.0000  Ry
     charge density cutoff     =     480.0000  Ry
     convergence threshold     =      1.0E-12
     mixing beta               =       0.7000
     number of iterations used =            8  plain     mixing
     Exchange-correlation      = SLA PW GGX GGC ( 1  4  2  2 0 0)

     celldm(1)=   9.073908  celldm(2)=   0.000000  celldm(3)=   0.000000
     celldm(4)=   0.000000  celldm(5)=   0.000000  celldm(6)=   0.000000

     crystal axes: (cart. coord. in units of alat)
               a(1) = (  -0.500000   0.000000   0.500000 )  
               a(2) = (   0.000000   0.500000   0.500000 )  
               a(3) = (  -0.500000   0.500000   0.000000 )  

     reciprocal axes: (cart. coord. in units 2 pi/alat)
               b(1) = ( -1.000000 -1.000000  1.000000 )  
               b(2) = (  1.000000  1.000000  1.000000 )  
               b(3) = ( -1.000000  1.000000 -1.000000 )  


     PseudoPot. # 1 for La read from file:
     ./La.pw91-nsp-van.UPF
     MD5 check sum: 67a81199bfb670b6e1a328fba0d931ed
     Pseudo is Ultrasoft + core correction, Zval = 11.0
     Generated by new atomic code, or converted to UPF format
     Using radial grid of  907 points,  6 beta functions with: 
                l(1) =   0
                l(2) =   0
                l(3) =   1
                l(4) =   1
                l(5) =   2
                l(6) =   2
     Q(r) pseudized with  6 coefficients,  rinner =    1.200   1.200   1.200
                                                       1.200   1.200

     PseudoPot. # 2 for H  read from file:
     ./H.pw91-van_ak.UPF
     MD5 check sum: bbf060b360c08ad083c0d3b45d896bc6
     Pseudo is Ultrasoft, Zval =  1.0
     Generated by new atomic code, or converted to UPF format
     Using radial grid of  615 points,  1 beta functions with: 
                l(1) =   0
     Q(r) pseudized with  8 coefficients,  rinner =    0.800

     atomic species   valence    mass     pseudopotential
        La            11.00   138.90547     La( 1.00)
        H              1.00     1.00800     H ( 1.00)

     48 Sym. Ops., with inversion, found



   Cartesian axes

     site n.     atom                  positions (alat units)
         1           La  tau(   1) = (   0.0000000   0.0000000   0.0000000  )
         2           H   tau(   2) = (  -0.3790070   0.6209923   0.6209923  )
         3           H   tau(   3) = (  -0.6209923   0.3790070   0.3790070  )
         4           H   tau(   4) = (  -0.6209923   0.3790070   0.6209923  )
         5           H   tau(   5) = (  -0.3790070   0.6209923   0.3790070  )
         6           H   tau(   6) = (  -0.6209923   0.6209923   0.3790070  )
         7           H   tau(   7) = (  -0.3790070   0.3790070   0.6209923  )
         8           H   tau(   8) = (  -0.3790070   0.3790070   0.3790070  )
         9           H   tau(   9) = (  -0.6209923   0.6209923   0.6209923  )
        10           H   tau(  10) = (  -0.7499994   0.7499994   0.7499994  )
        11           H   tau(  11) = (  -0.2499998   0.2499998   0.2499998  )

     number of k points=   413  gaussian smearing, width (Ry)=  0.0200

     Number of k-points >= 100: set verbosity='high' to print them.

     Dense  grid:    33223 G-vectors     FFT dimensions: (  45,  45,  45)

     Smooth grid:    18149 G-vectors     FFT dimensions: (  40,  40,  40)

     Estimated max dynamical RAM per process >      41.64 MB

     Estimated total dynamical RAM >       1.14 GB

     Initial potential from superposition of free atoms

     starting charge   20.96479, renormalised to   21.00000
     Starting wfcs are   23 randomized atomic wfcs

     total cpu time spent up to now is        3.6 secs

     Self-consistent Calculation

     iteration #  1     ecut=    80.00 Ry     beta= 0.70
     Davidson diagonalization with overlap
     ethr =  1.00E-02,  avg # of iterations =  3.1

     total cpu time spent up to now is        5.7 secs

     total energy              =    -109.21496171 Ry
     Harris-Foulkes estimate   =    -109.38772044 Ry
     estimated scf accuracy    <       0.27441699 Ry

     iteration #  2     ecut=    80.00 Ry     beta= 0.70
     Davidson diagonalization with overlap
     ethr =  1.31E-03,  avg # of iterations =  2.1

     total cpu time spent up to now is        7.5 secs

     total energy              =    -109.27436133 Ry
     Harris-Foulkes estimate   =    -109.28482900 Ry
     estimated scf accuracy    <       0.01691143 Ry

     iteration #  3     ecut=    80.00 Ry     beta= 0.70
     Davidson diagonalization with overlap
     ethr =  8.05E-05,  avg # of iterations =  2.3

     total cpu time spent up to now is        9.3 secs

     total energy              =    -109.27793690 Ry
     Harris-Foulkes estimate   =    -109.27808983 Ry
     estimated scf accuracy    <       0.00081795 Ry

     iteration #  4     ecut=    80.00 Ry     beta= 0.70
     Davidson diagonalization with overlap
     ethr =  3.89E-06,  avg # of iterations =  2.8

     total cpu time spent up to now is       11.0 secs

     total energy              =    -109.27799038 Ry
     Harris-Foulkes estimate   =    -109.27799321 Ry
     estimated scf accuracy    <       0.00000907 Ry

     iteration #  5     ecut=    80.00 Ry     beta= 0.70
     Davidson diagonalization with overlap
     ethr =  4.32E-08,  avg # of iterations =  2.0

     total cpu time spent up to now is       12.6 secs

     total energy              =    -109.27799248 Ry
     Harris-Foulkes estimate   =    -109.27799261 Ry
     estimated scf accuracy    <       0.00000033 Ry

     iteration #  6     ecut=    80.00 Ry     beta= 0.70
     Davidson diagonalization with overlap
     ethr =  1.58E-09,  avg # of iterations =  2.0

     total cpu time spent up to now is       14.3 secs

     total energy              =    -109.27799252 Ry
     Harris-Foulkes estimate   =    -109.27799252 Ry
     estimated scf accuracy    <          4.4E-09 Ry

     iteration #  7     ecut=    80.00 Ry     beta= 0.70
     Davidson diagonalization with overlap
     ethr =  2.11E-11,  avg # of iterations =  2.0

     total cpu time spent up to now is       15.9 secs

     total energy              =    -109.27799252 Ry
     Harris-Foulkes estimate   =    -109.27799252 Ry
     estimated scf accuracy    <          7.4E-11 Ry

     iteration #  8     ecut=    80.00 Ry     beta= 0.70
     Davidson diagonalization with overlap
     ethr =  3.53E-13,  avg # of iterations =  2.0

     total cpu time spent up to now is       17.6 secs

     total energy              =    -109.27799252 Ry
     Harris-Foulkes estimate   =    -109.27799252 Ry
     estimated scf accuracy    <          4.1E-12 Ry

     iteration #  9     ecut=    80.00 Ry     beta= 0.70
     Davidson diagonalization with overlap
     ethr =  1.00E-13,  avg # of iterations =  1.0

     total cpu time spent up to now is       18.9 secs

     End of self-consistent calculation

     Number of k-points >= 100: set verbosity='high' to print the bands.

     the Fermi energy is    21.2159 ev

!    total energy              =    -109.27799252 Ry
     Harris-Foulkes estimate   =    -109.27799252 Ry
     estimated scf accuracy    <          3.2E-15 Ry

     The total energy is the sum of the following terms:

     one-electron contribution =      34.03252251 Ry
     hartree contribution      =       2.08548354 Ry
     xc contribution           =     -55.61271313 Ry
     ewald contribution        =     -89.78115251 Ry
     smearing contrib. (-TS)   =      -0.00213292 Ry

     convergence has been achieved in   9 iterations

     Forces acting on atoms (cartesian axes, Ry/au):

     atom    1 type  1   force =     0.00000000   -0.00000000    0.00000000
     atom    2 type  2   force =     0.00000195    0.00000195    0.00000195
     atom    3 type  2   force =    -0.00000195   -0.00000195   -0.00000195
     atom    4 type  2   force =    -0.00000195   -0.00000195    0.00000195
     atom    5 type  2   force =     0.00000195    0.00000195   -0.00000195
     atom    6 type  2   force =    -0.00000195    0.00000195   -0.00000195
     atom    7 type  2   force =     0.00000195   -0.00000195    0.00000195
     atom    8 type  2   force =     0.00000195   -0.00000195   -0.00000195
     atom    9 type  2   force =    -0.00000195    0.00000195    0.00000195
     atom   10 type  2   force =     0.00000000   -0.00000000   -0.00000000
     atom   11 type  2   force =     0.00000000    0.00000000    0.00000000

     Total force =     0.000010     Total SCF correction =     0.000000


     Computing stress (Cartesian axis) and pressure

          total   stress  (Ry/bohr**3)                   (kbar)     P= 2499.60
   0.01699196   0.00000000   0.00000000       2499.60      0.00      0.00
   0.00000000   0.01699196  -0.00000000          0.00   2499.60     -0.00
   0.00000000  -0.00000000   0.01699196          0.00     -0.00   2499.60


     Writing output data file LaH10.save/

     init_run     :      1.81s CPU      1.91s WALL (       1 calls)
     electrons    :     15.00s CPU     15.56s WALL (       1 calls)
     forces       :      0.29s CPU      0.30s WALL (       1 calls)
     stress       :      0.70s CPU      0.74s WALL (       1 calls)

     Called by init_run:
     wfcinit      :      0.71s CPU      0.75s WALL (       1 calls)
     potinit      :      0.11s CPU      0.13s WALL (       1 calls)
     hinit0       :      0.97s CPU      0.98s WALL (       1 calls)

     Called by electrons:
     c_bands      :     11.49s CPU     11.69s WALL (       9 calls)
     sum_band     :      2.38s CPU      2.44s WALL (       9 calls)
     v_of_rho     :      0.91s CPU      0.94s WALL (      10 calls)
     newd         :      0.08s CPU      0.08s WALL (      10 calls)
     mix_rho      :      0.09s CPU      0.10s WALL (       9 calls)

     Called by c_bands:
     init_us_2    :      0.53s CPU      0.55s WALL (     315 calls)
     cegterg      :      9.79s CPU      9.96s WALL (     135 calls)

     Called by sum_band:
     sum_band:bec :      0.00s CPU      0.00s WALL (     135 calls)
     addusdens    :      0.07s CPU      0.07s WALL (       9 calls)

     Called by *egterg:
     h_psi        :      9.23s CPU      9.39s WALL (     422 calls)
     s_psi        :      0.16s CPU      0.17s WALL (     422 calls)
     g_psi        :      0.08s CPU      0.08s WALL (     272 calls)
     cdiaghg      :      0.18s CPU      0.19s WALL (     407 calls)

     Called by h_psi:
     h_psi:pot    :      9.15s CPU      9.31s WALL (     422 calls)
     h_psi:calbec :      0.17s CPU      0.17s WALL (     422 calls)
     vloc_psi     :      8.78s CPU      8.91s WALL (     422 calls)
     add_vuspsi   :      0.20s CPU      0.21s WALL (     422 calls)

     General routines
     calbec       :      0.26s CPU      0.26s WALL (     632 calls)
     fft          :      0.19s CPU      0.20s WALL (     154 calls)
     ffts         :      0.01s CPU      0.01s WALL (      19 calls)
     fftw         :      8.92s CPU      9.06s WALL (   12759 calls)
     interpolate  :      0.03s CPU      0.03s WALL (      10 calls)

     Parallel routines

     PWSCF        :    19.27s CPU        21.67s WALL


   This run was terminated on:   4:43:49  15Oct2018            

=------------------------------------------------------------------------------=
   JOB DONE.
=------------------------------------------------------------------------------=

Collection and Platform Info
----------------------------
Parameter                 mpi_res_dir.r026.pvt.bridges.psc.edu                                                                                                                                                                                                                                                                                                                                                                                               
------------------------  -----------------------------------------------------------------------------------------------------------------------------------------------------------------------------------------------------------------------------------------------------------------------------------------------------------------------------------------------------------------------------------------------------------------------------------
Application Command Line  /pylon5/mr5fpkp/yundi/qe-benchmark/q-e-mpich-gnu/bin/pw.x "-npool" "28" "-inp" "scf.in"                                                                                                                                                                                                                                                                                                                                            
Operating System          3.10.0-693.21.1.el7.x86_64 NAME="CentOS Linux"
VERSION="7 (Core)"
ID="centos"
ID_LIKE="rhel fedora"
VERSION_ID="7"
PRETTY_NAME="CentOS Linux 7 (Core)"
ANSI_COLOR="0;31"
CPE_NAME="cpe:/o:centos:centos:7"
HOME_URL="https://www.centos.org/"
BUG_REPORT_URL="https://bugs.centos.org/"

CENTOS_MANTISBT_PROJECT="CentOS-7"
CENTOS_MANTISBT_PROJECT_VERSION="7"
REDHAT_SUPPORT_PRODUCT="centos"
REDHAT_SUPPORT_PRODUCT_VERSION="7"

MPI Process Rank          23                                                                                                                                                                                                                                                                                                                                                                                                                                 
Computer Name             r026.pvt.bridges.psc.edu                                                                                                                                                                                                                                                                                                                                                                                                           
Result Size               6897316                                                                                                                                                                                                                                                                                                                                                                                                                            
Collection start time     08:43:22 15/10/2018 UTC                                                                                                                                                                                                                                                                                                                                                                                                            
Collection stop time      08:43:50 15/10/2018 UTC                                                                                                                                                                                                                                                                                                                                                                                                            

CPU
---
Parameter          mpi_res_dir.r026.pvt.bridges.psc.edu                  
-----------------  ------------------------------------------------------
Name               Intel(R) Xeon(R) E5/E7 v3 Processor code named Haswell
Frequency          2294688273                                            
Logical CPU Count  28                                                    

Summary
-------
Elapsed Time:       26.328 
CPU Time:           560.294
Average CPU Usage:  20.048 
CPI Rate:           0.490  

Event summary
-------------
Hardware Event Type       Hardware Event Count:Self  Hardware Event Sample Count:Self  Events Per Sample
------------------------  -------------------------  --------------------------------  -----------------
CPU_CLK_UNHALTED.THREAD               1421400000000                               618  2300000000       
CPU_CLK_UNHALTED.REF_TSC              1285700000000                               559  2300000000       
INST_RETIRED.ANY                      2902600000000                              1262  2300000000       
